n -t * -s 0  -x 0 -y 0 -Z 0 -z 20  -v circle -c green
n -t * -s 1  -x 0 -y 250 -Z 0 -z 20  -v circle -c green
n -t * -s 2  -x 0 -y 500 -Z 0 -z 20  -v circle -c green
n -t * -s 3  -x 0 -y 750 -Z 0 -z 20  -v circle -c green
n -t * -s 4  -x 100 -y 0 -Z 0 -z 20  -v circle -c green
n -t * -s 5  -x 100 -y 250 -Z 0 -z 20  -v circle -c green
n -t * -s 6  -x 100 -y 500 -Z 0 -z 20  -v circle -c green
n -t * -s 7  -x 100 -y 750 -Z 0 -z 20  -v circle -c green
n -t * -s 8  -x 200 -y 0 -Z 0 -z 20  -v circle -c green
n -t * -s 9  -x 200 -y 250 -Z 0 -z 20  -v circle -c green
n -t * -s 10  -x 200 -y 500 -Z 0 -z 20  -v circle -c green
n -t * -s 11  -x 200 -y 750 -Z 0 -z 20  -v circle -c green
n -t * -s 12  -x 300 -y 0 -Z 0 -z 20  -v circle -c green
n -t * -s 13  -x 300 -y 250 -Z 0 -z 20  -v circle -c green
n -t * -s 14  -x 300 -y 500 -Z 0 -z 20  -v circle -c green
n -t * -s 15  -x 300 -y 750 -Z 0 -z 20  -v circle -c green
n -t * -s 16  -x 400 -y 0 -Z 0 -z 20  -v circle -c green
n -t * -s 17  -x 400 -y 250 -Z 0 -z 20  -v circle -c green
n -t * -s 18  -x 400 -y 500 -Z 0 -z 20  -v circle -c green
n -t * -s 19  -x 400 -y 750 -Z 0 -z 20  -v circle -c green
n -t * -s 20  -x 500 -y 0 -Z 0 -z 20  -v circle -c green
n -t * -s 21  -x 500 -y 250 -Z 0 -z 20  -v circle -c green
n -t * -s 22  -x 500 -y 500 -Z 0 -z 20  -v circle -c green
n -t * -s 23  -x 500 -y 750 -Z 0 -z 20  -v circle -c green
n -t * -s 24  -x 600 -y 0 -Z 0 -z 20  -v circle -c green
n -t * -s 25  -x 600 -y 250 -Z 0 -z 20  -v circle -c green
n -t * -s 26  -x 600 -y 500 -Z 0 -z 20  -v circle -c green
n -t * -s 27  -x 600 -y 750 -Z 0 -z 20  -v circle -c green
n -t * -s 28  -x 700 -y 0 -Z 0 -z 20  -v circle -c green
n -t * -s 29  -x 700 -y 250 -Z 0 -z 20  -v circle -c green
n -t * -s 30  -x 700 -y 500 -Z 0 -z 20  -v circle -c green
n -t * -s 31  -x 700 -y 750 -Z 0 -z 20  -v circle -c green
n -t * -s 32  -x 800 -y 0 -Z 0 -z 20  -v circle -c green
n -t * -s 33  -x 800 -y 250 -Z 0 -z 20  -v circle -c green
n -t * -s 34  -x 800 -y 500 -Z 0 -z 20  -v circle -c green
n -t * -s 35  -x 800 -y 750 -Z 0 -z 20  -v circle -c green
n -t * -s 36  -x 900 -y 0 -Z 0 -z 20  -v circle -c green
n -t * -s 37  -x 900 -y 250 -Z 0 -z 20  -v circle -c green
n -t * -s 38  -x 900 -y 500 -Z 0 -z 20  -v circle -c green
n -t * -s 39  -x 900 -y 750 -Z 0 -z 20  -v circle -c green
V -t * -v 1.0a5 -a 0
W -t * -x 1000 -y 1000
A -t * -n 1 -p 0 -o 0x7fffffff -c 30 -a 1
A -t * -h 1 -m 1073741823 -s 0
+ -t 0.026945662 -s 14 -d -1 -p message -e 32 -c 2 -a 0 -i 0 -k RTR 
- -t 0.026945662 -s 14 -d -1 -p message -e 32 -c 2 -a 0 -i 0 -k RTR
h -t 0.026945662 -s 14 -d -1 -p message -e 32 -c 2 -a 0 -i 0 -k RTR
r -t 0.027845995 -s 10 -d -1 -p message -e 32 -c 2 -a 0 -i 0 -k RTR
r -t 0.027845995 -s 18 -d -1 -p message -e 32 -c 2 -a 0 -i 0 -k RTR
r -t 0.027846329 -s 6 -d -1 -p message -e 32 -c 2 -a 0 -i 0 -k RTR
r -t 0.027846329 -s 22 -d -1 -p message -e 32 -c 2 -a 0 -i 0 -k RTR
r -t 0.027846495 -s 13 -d -1 -p message -e 32 -c 2 -a 0 -i 0 -k RTR
r -t 0.027846495 -s 15 -d -1 -p message -e 32 -c 2 -a 0 -i 0 -k RTR
+ -t 0.063258946 -s 26 -d -1 -p message -e 32 -c 2 -a 0 -i 1 -k RTR 
- -t 0.063258946 -s 26 -d -1 -p message -e 32 -c 2 -a 0 -i 1 -k RTR
h -t 0.063258946 -s 26 -d -1 -p message -e 32 -c 2 -a 0 -i 1 -k RTR
r -t 0.064419280 -s 22 -d -1 -p message -e 32 -c 2 -a 0 -i 1 -k RTR
r -t 0.064419280 -s 30 -d -1 -p message -e 32 -c 2 -a 0 -i 1 -k RTR
r -t 0.064419613 -s 18 -d -1 -p message -e 32 -c 2 -a 0 -i 1 -k RTR
r -t 0.064419613 -s 34 -d -1 -p message -e 32 -c 2 -a 0 -i 1 -k RTR
r -t 0.064419780 -s 25 -d -1 -p message -e 32 -c 2 -a 0 -i 1 -k RTR
r -t 0.064419780 -s 27 -d -1 -p message -e 32 -c 2 -a 0 -i 1 -k RTR
+ -t 0.106127935 -s 38 -d -1 -p message -e 32 -c 2 -a 0 -i 2 -k RTR 
- -t 0.106127935 -s 38 -d -1 -p message -e 32 -c 2 -a 0 -i 2 -k RTR
h -t 0.106127935 -s 38 -d -1 -p message -e 32 -c 2 -a 0 -i 2 -k RTR
r -t 0.107528268 -s 34 -d -1 -p message -e 32 -c 2 -a 0 -i 2 -k RTR
r -t 0.107528601 -s 30 -d -1 -p message -e 32 -c 2 -a 0 -i 2 -k RTR
r -t 0.107528768 -s 37 -d -1 -p message -e 32 -c 2 -a 0 -i 2 -k RTR
r -t 0.107528768 -s 39 -d -1 -p message -e 32 -c 2 -a 0 -i 2 -k RTR
+ -t 0.122389341 -s 13 -d -1 -p message -e 32 -c 2 -a 0 -i 3 -k RTR 
- -t 0.122389341 -s 13 -d -1 -p message -e 32 -c 2 -a 0 -i 3 -k RTR
h -t 0.122389341 -s 13 -d -1 -p message -e 32 -c 2 -a 0 -i 3 -k RTR
r -t 0.123749674 -s 9 -d -1 -p message -e 32 -c 2 -a 0 -i 3 -k RTR
r -t 0.123749674 -s 17 -d -1 -p message -e 32 -c 2 -a 0 -i 3 -k RTR
r -t 0.123750008 -s 5 -d -1 -p message -e 32 -c 2 -a 0 -i 3 -k RTR
r -t 0.123750008 -s 21 -d -1 -p message -e 32 -c 2 -a 0 -i 3 -k RTR
r -t 0.123750174 -s 12 -d -1 -p message -e 32 -c 2 -a 0 -i 3 -k RTR
r -t 0.123750174 -s 14 -d -1 -p message -e 32 -c 2 -a 0 -i 3 -k RTR
+ -t 0.184213717 -s 36 -d -1 -p message -e 32 -c 2 -a 0 -i 4 -k RTR 
- -t 0.184213717 -s 36 -d -1 -p message -e 32 -c 2 -a 0 -i 4 -k RTR
h -t 0.184213717 -s 36 -d -1 -p message -e 32 -c 2 -a 0 -i 4 -k RTR
r -t 0.185374050 -s 32 -d -1 -p message -e 32 -c 2 -a 0 -i 4 -k RTR
r -t 0.185374383 -s 28 -d -1 -p message -e 32 -c 2 -a 0 -i 4 -k RTR
r -t 0.185374550 -s 37 -d -1 -p message -e 32 -c 2 -a 0 -i 4 -k RTR
+ -t 0.218398689 -s 6 -d -1 -p message -e 32 -c 2 -a 0 -i 5 -k RTR 
- -t 0.218398689 -s 6 -d -1 -p message -e 32 -c 2 -a 0 -i 5 -k RTR
h -t 0.218398689 -s 6 -d -1 -p message -e 32 -c 2 -a 0 -i 5 -k RTR
r -t 0.219399023 -s 2 -d -1 -p message -e 32 -c 2 -a 0 -i 5 -k RTR
r -t 0.219399023 -s 10 -d -1 -p message -e 32 -c 2 -a 0 -i 5 -k RTR
r -t 0.219399356 -s 14 -d -1 -p message -e 32 -c 2 -a 0 -i 5 -k RTR
r -t 0.219399523 -s 5 -d -1 -p message -e 32 -c 2 -a 0 -i 5 -k RTR
r -t 0.219399523 -s 7 -d -1 -p message -e 32 -c 2 -a 0 -i 5 -k RTR
+ -t 0.233182024 -s 12 -d -1 -p message -e 32 -c 2 -a 0 -i 6 -k RTR 
- -t 0.233182024 -s 12 -d -1 -p message -e 32 -c 2 -a 0 -i 6 -k RTR
h -t 0.233182024 -s 12 -d -1 -p message -e 32 -c 2 -a 0 -i 6 -k RTR
r -t 0.234122357 -s 8 -d -1 -p message -e 32 -c 2 -a 0 -i 6 -k RTR
r -t 0.234122357 -s 16 -d -1 -p message -e 32 -c 2 -a 0 -i 6 -k RTR
r -t 0.234122690 -s 4 -d -1 -p message -e 32 -c 2 -a 0 -i 6 -k RTR
r -t 0.234122690 -s 20 -d -1 -p message -e 32 -c 2 -a 0 -i 6 -k RTR
r -t 0.234122857 -s 13 -d -1 -p message -e 32 -c 2 -a 0 -i 6 -k RTR
+ -t 0.246240494 -s 17 -d -1 -p message -e 32 -c 2 -a 0 -i 7 -k RTR 
- -t 0.246240494 -s 17 -d -1 -p message -e 32 -c 2 -a 0 -i 7 -k RTR
h -t 0.246240494 -s 17 -d -1 -p message -e 32 -c 2 -a 0 -i 7 -k RTR
r -t 0.247200828 -s 13 -d -1 -p message -e 32 -c 2 -a 0 -i 7 -k RTR
r -t 0.247200828 -s 21 -d -1 -p message -e 32 -c 2 -a 0 -i 7 -k RTR
r -t 0.247201161 -s 9 -d -1 -p message -e 32 -c 2 -a 0 -i 7 -k RTR
r -t 0.247201161 -s 25 -d -1 -p message -e 32 -c 2 -a 0 -i 7 -k RTR
r -t 0.247201328 -s 16 -d -1 -p message -e 32 -c 2 -a 0 -i 7 -k RTR
r -t 0.247201328 -s 18 -d -1 -p message -e 32 -c 2 -a 0 -i 7 -k RTR
+ -t 0.365514018 -s 34 -d -1 -p message -e 32 -c 2 -a 0 -i 8 -k RTR 
- -t 0.365514018 -s 34 -d -1 -p message -e 32 -c 2 -a 0 -i 8 -k RTR
h -t 0.365514018 -s 34 -d -1 -p message -e 32 -c 2 -a 0 -i 8 -k RTR
r -t 0.366834351 -s 30 -d -1 -p message -e 32 -c 2 -a 0 -i 8 -k RTR
r -t 0.366834351 -s 38 -d -1 -p message -e 32 -c 2 -a 0 -i 8 -k RTR
r -t 0.366834685 -s 26 -d -1 -p message -e 32 -c 2 -a 0 -i 8 -k RTR
r -t 0.366834851 -s 33 -d -1 -p message -e 32 -c 2 -a 0 -i 8 -k RTR
r -t 0.366834851 -s 35 -d -1 -p message -e 32 -c 2 -a 0 -i 8 -k RTR
+ -t 0.378582073 -s 28 -d -1 -p message -e 32 -c 2 -a 0 -i 9 -k RTR 
- -t 0.378582073 -s 28 -d -1 -p message -e 32 -c 2 -a 0 -i 9 -k RTR
h -t 0.378582073 -s 28 -d -1 -p message -e 32 -c 2 -a 0 -i 9 -k RTR
r -t 0.379402407 -s 24 -d -1 -p message -e 32 -c 2 -a 0 -i 9 -k RTR
r -t 0.379402407 -s 32 -d -1 -p message -e 32 -c 2 -a 0 -i 9 -k RTR
r -t 0.379402740 -s 20 -d -1 -p message -e 32 -c 2 -a 0 -i 9 -k RTR
r -t 0.379402740 -s 36 -d -1 -p message -e 32 -c 2 -a 0 -i 9 -k RTR
r -t 0.379402907 -s 29 -d -1 -p message -e 32 -c 2 -a 0 -i 9 -k RTR
+ -t 0.379937952 -s 8 -d -1 -p message -e 32 -c 2 -a 0 -i 10 -k RTR 
- -t 0.379937952 -s 8 -d -1 -p message -e 32 -c 2 -a 0 -i 10 -k RTR
h -t 0.379937952 -s 8 -d -1 -p message -e 32 -c 2 -a 0 -i 10 -k RTR
r -t 0.381278286 -s 4 -d -1 -p message -e 32 -c 2 -a 0 -i 10 -k RTR
r -t 0.381278286 -s 12 -d -1 -p message -e 32 -c 2 -a 0 -i 10 -k RTR
r -t 0.381278619 -s 0 -d -1 -p message -e 32 -c 2 -a 0 -i 10 -k RTR
r -t 0.381278619 -s 16 -d -1 -p message -e 32 -c 2 -a 0 -i 10 -k RTR
r -t 0.381278786 -s 9 -d -1 -p message -e 32 -c 2 -a 0 -i 10 -k RTR
+ -t 0.416780177 -s 32 -d -1 -p message -e 32 -c 2 -a 0 -i 11 -k RTR 
- -t 0.416780177 -s 32 -d -1 -p message -e 32 -c 2 -a 0 -i 11 -k RTR
h -t 0.416780177 -s 32 -d -1 -p message -e 32 -c 2 -a 0 -i 11 -k RTR
r -t 0.417620510 -s 28 -d -1 -p message -e 32 -c 2 -a 0 -i 11 -k RTR
r -t 0.417620510 -s 36 -d -1 -p message -e 32 -c 2 -a 0 -i 11 -k RTR
r -t 0.417620844 -s 24 -d -1 -p message -e 32 -c 2 -a 0 -i 11 -k RTR
r -t 0.417621010 -s 33 -d -1 -p message -e 32 -c 2 -a 0 -i 11 -k RTR
+ -t 0.486755304 -s 0 -d -1 -p message -e 32 -c 2 -a 0 -i 12 -k RTR 
- -t 0.486755304 -s 0 -d -1 -p message -e 32 -c 2 -a 0 -i 12 -k RTR
h -t 0.486755304 -s 0 -d -1 -p message -e 32 -c 2 -a 0 -i 12 -k RTR
r -t 0.487595638 -s 4 -d -1 -p message -e 32 -c 2 -a 0 -i 12 -k RTR
r -t 0.487595971 -s 8 -d -1 -p message -e 32 -c 2 -a 0 -i 12 -k RTR
r -t 0.487596138 -s 1 -d -1 -p message -e 32 -c 2 -a 0 -i 12 -k RTR
+ -t 0.518835219 -s 19 -d -1 -p message -e 32 -c 2 -a 0 -i 13 -k RTR 
- -t 0.518835219 -s 19 -d -1 -p message -e 32 -c 2 -a 0 -i 13 -k RTR
h -t 0.518835219 -s 19 -d -1 -p message -e 32 -c 2 -a 0 -i 13 -k RTR
r -t 0.520135553 -s 15 -d -1 -p message -e 32 -c 2 -a 0 -i 13 -k RTR
r -t 0.520135553 -s 23 -d -1 -p message -e 32 -c 2 -a 0 -i 13 -k RTR
r -t 0.520135886 -s 11 -d -1 -p message -e 32 -c 2 -a 0 -i 13 -k RTR
r -t 0.520135886 -s 27 -d -1 -p message -e 32 -c 2 -a 0 -i 13 -k RTR
r -t 0.520136053 -s 18 -d -1 -p message -e 32 -c 2 -a 0 -i 13 -k RTR
+ -t 0.525233432 -s 23 -d -1 -p message -e 32 -c 2 -a 0 -i 14 -k RTR 
- -t 0.525233432 -s 23 -d -1 -p message -e 32 -c 2 -a 0 -i 14 -k RTR
h -t 0.525233432 -s 23 -d -1 -p message -e 32 -c 2 -a 0 -i 14 -k RTR
r -t 0.526233765 -s 19 -d -1 -p message -e 32 -c 2 -a 0 -i 14 -k RTR
r -t 0.526233765 -s 27 -d -1 -p message -e 32 -c 2 -a 0 -i 14 -k RTR
r -t 0.526234098 -s 15 -d -1 -p message -e 32 -c 2 -a 0 -i 14 -k RTR
r -t 0.526234098 -s 31 -d -1 -p message -e 32 -c 2 -a 0 -i 14 -k RTR
r -t 0.526234265 -s 22 -d -1 -p message -e 32 -c 2 -a 0 -i 14 -k RTR
+ -t 0.663347447 -s 27 -d -1 -p message -e 32 -c 2 -a 0 -i 15 -k RTR 
- -t 0.663347447 -s 27 -d -1 -p message -e 32 -c 2 -a 0 -i 15 -k RTR
h -t 0.663347447 -s 27 -d -1 -p message -e 32 -c 2 -a 0 -i 15 -k RTR
r -t 0.664267780 -s 23 -d -1 -p message -e 32 -c 2 -a 0 -i 15 -k RTR
r -t 0.664267780 -s 31 -d -1 -p message -e 32 -c 2 -a 0 -i 15 -k RTR
r -t 0.664268113 -s 19 -d -1 -p message -e 32 -c 2 -a 0 -i 15 -k RTR
r -t 0.664268113 -s 35 -d -1 -p message -e 32 -c 2 -a 0 -i 15 -k RTR
r -t 0.664268280 -s 26 -d -1 -p message -e 32 -c 2 -a 0 -i 15 -k RTR
+ -t 0.673593824 -s 16 -d -1 -p message -e 32 -c 2 -a 0 -i 16 -k RTR 
- -t 0.673593824 -s 16 -d -1 -p message -e 32 -c 2 -a 0 -i 16 -k RTR
h -t 0.673593824 -s 16 -d -1 -p message -e 32 -c 2 -a 0 -i 16 -k RTR
r -t 0.674994157 -s 12 -d -1 -p message -e 32 -c 2 -a 0 -i 16 -k RTR
r -t 0.674994157 -s 20 -d -1 -p message -e 32 -c 2 -a 0 -i 16 -k RTR
r -t 0.674994490 -s 8 -d -1 -p message -e 32 -c 2 -a 0 -i 16 -k RTR
r -t 0.674994490 -s 24 -d -1 -p message -e 32 -c 2 -a 0 -i 16 -k RTR
r -t 0.674994657 -s 17 -d -1 -p message -e 32 -c 2 -a 0 -i 16 -k RTR
+ -t 0.815372257 -s 5 -d -1 -p message -e 32 -c 2 -a 0 -i 18 -k RTR 
- -t 0.815372257 -s 5 -d -1 -p message -e 32 -c 2 -a 0 -i 18 -k RTR
h -t 0.815372257 -s 5 -d -1 -p message -e 32 -c 2 -a 0 -i 18 -k RTR
+ -t 0.816355436 -s 7 -d -1 -p message -e 32 -c 2 -a 0 -i 17 -k RTR 
- -t 0.816355436 -s 7 -d -1 -p message -e 32 -c 2 -a 0 -i 17 -k RTR
h -t 0.816355436 -s 7 -d -1 -p message -e 32 -c 2 -a 0 -i 17 -k RTR
r -t 0.816712591 -s 1 -d -1 -p message -e 32 -c 2 -a 0 -i 18 -k RTR
r -t 0.816712591 -s 9 -d -1 -p message -e 32 -c 2 -a 0 -i 18 -k RTR
r -t 0.816712924 -s 13 -d -1 -p message -e 32 -c 2 -a 0 -i 18 -k RTR
r -t 0.816713091 -s 4 -d -1 -p message -e 32 -c 2 -a 0 -i 18 -k RTR
r -t 0.816713091 -s 6 -d -1 -p message -e 32 -c 2 -a 0 -i 18 -k RTR
r -t 0.817948257 -s 3 -d -1 -p message -e 32 -c 2 -a 0 -i 17 -k RTR
r -t 0.817948257 -s 11 -d -1 -p message -e 32 -c 2 -a 0 -i 17 -k RTR
r -t 0.817948591 -s 15 -d -1 -p message -e 32 -c 2 -a 0 -i 17 -k RTR
r -t 0.817948757 -s 6 -d -1 -p message -e 32 -c 2 -a 0 -i 17 -k RTR
+ -t 0.860951752 -s 25 -d -1 -p message -e 32 -c 2 -a 0 -i 19 -k RTR 
- -t 0.860951752 -s 25 -d -1 -p message -e 32 -c 2 -a 0 -i 19 -k RTR
h -t 0.860951752 -s 25 -d -1 -p message -e 32 -c 2 -a 0 -i 19 -k RTR
r -t 0.862012085 -s 21 -d -1 -p message -e 32 -c 2 -a 0 -i 19 -k RTR
r -t 0.862012085 -s 29 -d -1 -p message -e 32 -c 2 -a 0 -i 19 -k RTR
r -t 0.862012418 -s 17 -d -1 -p message -e 32 -c 2 -a 0 -i 19 -k RTR
r -t 0.862012418 -s 33 -d -1 -p message -e 32 -c 2 -a 0 -i 19 -k RTR
r -t 0.862012585 -s 24 -d -1 -p message -e 32 -c 2 -a 0 -i 19 -k RTR
r -t 0.862012585 -s 26 -d -1 -p message -e 32 -c 2 -a 0 -i 19 -k RTR
+ -t 0.988845724 -s 37 -d -1 -p message -e 32 -c 2 -a 0 -i 20 -k RTR 
- -t 0.988845724 -s 37 -d -1 -p message -e 32 -c 2 -a 0 -i 20 -k RTR
h -t 0.988845724 -s 37 -d -1 -p message -e 32 -c 2 -a 0 -i 20 -k RTR
r -t 0.989826057 -s 33 -d -1 -p message -e 32 -c 2 -a 0 -i 20 -k RTR
r -t 0.989826391 -s 29 -d -1 -p message -e 32 -c 2 -a 0 -i 20 -k RTR
r -t 0.989826557 -s 36 -d -1 -p message -e 32 -c 2 -a 0 -i 20 -k RTR
r -t 0.989826557 -s 38 -d -1 -p message -e 32 -c 2 -a 0 -i 20 -k RTR
n -t 1.000000 -s 0 -x 0.000000 -y 0.000000 -U 7.928052 -V 6.094751 -T 102.547257
n -t 1.000000 -s 1 -x 0.000000 -y 250.000000 -U 8.535422 -V 5.210237 -T 85.408782
n -t 1.000000 -s 2 -x 0.000000 -y 500.000000 -U 8.874336 -V -4.609356 -T 75.498609
n -t 1.000000 -s 3 -x 0.000000 -y 750.000000 -U 8.981076 -V -4.397758 -T 53.891094
n -t 1.000000 -s 4 -x 100.000000 -y 0.000000 -U 6.025728 -V 7.980639 -T 86.960451
n -t 1.000000 -s 5 -x 100.000000 -y 250.000000 -U 8.551159 -V 5.184369 -T 81.977192
n -t 1.000000 -s 6 -x 100.000000 -y 500.000000 -U 9.354404 -V 3.534844 -T 23.197629
n -t 1.000000 -s 7 -x 100.000000 -y 750.000000 -U 8.738400 -V 4.862136 -T 44.630595
n -t 1.000000 -s 8 -x 200.000000 -y 0.000000 -U 4.168818 -V 9.089607 -T 75.800858
n -t 1.000000 -s 9 -x 200.000000 -y 250.000000 -U 3.597594 -V 9.330451 -T 77.273864
n -t 1.000000 -s 10 -x 200.000000 -y 500.000000 -U -9.787169 -V -2.052148 -T 19.004473
n -t 1.000000 -s 11 -x 200.000000 -y 750.000000 -U 9.252285 -V -3.794103 -T 15.023315
n -t 1.000000 -s 12 -x 300.000000 -y 0.000000 -U 0.246838 -V 9.996953 -T 16.204938
n -t 1.000000 -s 13 -x 300.000000 -y 250.000000 -U 6.355332 -V 7.720735 -T 80.562274
n -t 1.000000 -s 14 -x 300.000000 -y 500.000000 -U 8.103329 -V 5.859698 -T 83.792720
n -t 1.000000 -s 15 -x 300.000000 -y 750.000000 -U -8.132595 -V -5.819012 -T 28.527180
n -t 1.000000 -s 16 -x 400.000000 -y 0.000000 -U -5.689410 -V 8.223783 -T 38.668333
n -t 1.000000 -s 17 -x 400.000000 -y 250.000000 -U 9.741685 -V 2.258225 -T 60.667125
n -t 1.000000 -s 18 -x 400.000000 -y 500.000000 -U 9.413596 -V -3.374049 -T 29.637982
n -t 1.000000 -s 19 -x 400.000000 -y 750.000000 -U 3.665245 -V -9.304084 -T 21.280977
n -t 1.000000 -s 20 -x 500.000000 -y 0.000000 -U 6.207990 -V 7.839698 -T 53.318383
n -t 1.000000 -s 21 -x 500.000000 -y 250.000000 -U -0.620691 -V 9.980719 -T 40.277661
n -t 1.000000 -s 22 -x 500.000000 -y 500.000000 -U 8.992351 -V -4.374657 -T 41.146081
n -t 1.000000 -s 23 -x 500.000000 -y 750.000000 -U -4.243368 -V -9.055044 -T 52.788256
n -t 1.000000 -s 24 -x 600.000000 -y 0.000000 -U -7.120342 -V 7.021448 -T 50.559371
n -t 1.000000 -s 25 -x 600.000000 -y 250.000000 -U -6.559863 -V 7.547728 -T 90.093340
n -t 1.000000 -s 26 -x 600.000000 -y 500.000000 -U -3.887290 -V -9.213521 -T 46.562002
n -t 1.000000 -s 27 -x 600.000000 -y 750.000000 -U -9.454408 -V -3.257938 -T 46.962219
n -t 1.000000 -s 28 -x 700.000000 -y 0.000000 -U -5.191484 -V 8.546841 -T 107.291099
n -t 1.000000 -s 29 -x 700.000000 -y 250.000000 -U -8.710678 -V 4.911628 -T 73.702646
n -t 1.000000 -s 30 -x 700.000000 -y 500.000000 -U 7.494130 -V 6.621028 -T 13.744090
n -t 1.000000 -s 31 -x 700.000000 -y 750.000000 -U -4.499806 -V -8.930383 -T 72.225342
n -t 1.000000 -s 32 -x 800.000000 -y 0.000000 -U -6.458599 -V 7.634560 -T 108.847141
n -t 1.000000 -s 33 -x 800.000000 -y 250.000000 -U -9.446737 -V 3.280117 -T 76.216796
n -t 1.000000 -s 34 -x 800.000000 -y 500.000000 -U 9.486833 -V 3.162278 -T 14.862705
n -t 1.000000 -s 35 -x 800.000000 -y 750.000000 -U -3.208070 -V -9.471446 -T 19.637973
n -t 1.000000 -s 36 -x 900.000000 -y 0.000000 -U -8.071277 -V 5.903768 -T 83.505988
n -t 1.000000 -s 37 -x 900.000000 -y 250.000000 -U -9.676173 -V -2.524219 -T 80.817077
n -t 1.000000 -s 38 -x 900.000000 -y 500.000000 -U -7.512064 -V -6.600674 -T 72.416849
n -t 1.000000 -s 39 -x 900.000000 -y 750.000000 -U -7.191502 -V -6.948546 -T 41.159689
+ -t 1.000000000 -s 15 -d -1 -p tcp -e 40 -c 2 -a 0 -i 21 -k AGT 
- -t 1.000000000 -s 15 -d -1 -p tcp -e 40 -c 2 -a 0 -i 21 -k AGT
h -t 1.000000000 -s 15 -d -1 -p tcp -e 40 -c 2 -a 0 -i 21 -k AGT
+ -t 1.000000000 -s 5 -d -1 -p tcp -e 40 -c 2 -a 0 -i 22 -k AGT 
- -t 1.000000000 -s 5 -d -1 -p tcp -e 40 -c 2 -a 0 -i 22 -k AGT
h -t 1.000000000 -s 5 -d -1 -p tcp -e 40 -c 2 -a 0 -i 22 -k AGT
+ -t 1.000000000 -s 5 -d 6 -p tcp -e 60 -c 2 -a 0 -i 22 -k RTR 
- -t 1.000000000 -s 5 -d 6 -p tcp -e 60 -c 2 -a 0 -i 22 -k RTR
h -t 1.000000000 -s 5 -d 6 -p tcp -e 60 -c 2 -a 0 -i 22 -k RTR
+ -t 1.000000000 -s 7 -d -1 -p tcp -e 40 -c 2 -a 0 -i 23 -k AGT 
- -t 1.000000000 -s 7 -d -1 -p tcp -e 40 -c 2 -a 0 -i 23 -k AGT
h -t 1.000000000 -s 7 -d -1 -p tcp -e 40 -c 2 -a 0 -i 23 -k AGT
+ -t 1.000000000 -s 24 -d -1 -p tcp -e 40 -c 2 -a 0 -i 24 -k AGT 
- -t 1.000000000 -s 24 -d -1 -p tcp -e 40 -c 2 -a 0 -i 24 -k AGT
h -t 1.000000000 -s 24 -d -1 -p tcp -e 40 -c 2 -a 0 -i 24 -k AGT
+ -t 1.000000000 -s 21 -d -1 -p tcp -e 40 -c 2 -a 0 -i 25 -k AGT 
- -t 1.000000000 -s 21 -d -1 -p tcp -e 40 -c 2 -a 0 -i 25 -k AGT
h -t 1.000000000 -s 21 -d -1 -p tcp -e 40 -c 2 -a 0 -i 25 -k AGT
+ -t 1.000000000 -s 15 -d -1 -p tcp -e 40 -c 2 -a 0 -i 26 -k AGT 
- -t 1.000000000 -s 15 -d -1 -p tcp -e 40 -c 2 -a 0 -i 26 -k AGT
h -t 1.000000000 -s 15 -d -1 -p tcp -e 40 -c 2 -a 0 -i 26 -k AGT
+ -t 1.000000000 -s 27 -d -1 -p tcp -e 40 -c 2 -a 0 -i 27 -k AGT 
- -t 1.000000000 -s 27 -d -1 -p tcp -e 40 -c 2 -a 0 -i 27 -k AGT
h -t 1.000000000 -s 27 -d -1 -p tcp -e 40 -c 2 -a 0 -i 27 -k AGT
+ -t 1.000000000 -s 15 -d -1 -p tcp -e 40 -c 2 -a 0 -i 28 -k AGT 
- -t 1.000000000 -s 15 -d -1 -p tcp -e 40 -c 2 -a 0 -i 28 -k AGT
h -t 1.000000000 -s 15 -d -1 -p tcp -e 40 -c 2 -a 0 -i 28 -k AGT
+ -t 1.000000000 -s 33 -d -1 -p tcp -e 40 -c 2 -a 0 -i 29 -k AGT 
- -t 1.000000000 -s 33 -d -1 -p tcp -e 40 -c 2 -a 0 -i 29 -k AGT
h -t 1.000000000 -s 33 -d -1 -p tcp -e 40 -c 2 -a 0 -i 29 -k AGT
+ -t 1.000000000 -s 14 -d -1 -p tcp -e 40 -c 2 -a 0 -i 30 -k AGT 
- -t 1.000000000 -s 14 -d -1 -p tcp -e 40 -c 2 -a 0 -i 30 -k AGT
h -t 1.000000000 -s 14 -d -1 -p tcp -e 40 -c 2 -a 0 -i 30 -k AGT
+ -t 1.000000000 -s 37 -d -1 -p tcp -e 40 -c 2 -a 0 -i 31 -k AGT 
- -t 1.000000000 -s 37 -d -1 -p tcp -e 40 -c 2 -a 0 -i 31 -k AGT
h -t 1.000000000 -s 37 -d -1 -p tcp -e 40 -c 2 -a 0 -i 31 -k AGT
+ -t 1.000000000 -s 12 -d -1 -p tcp -e 40 -c 2 -a 0 -i 32 -k AGT 
- -t 1.000000000 -s 12 -d -1 -p tcp -e 40 -c 2 -a 0 -i 32 -k AGT
h -t 1.000000000 -s 12 -d -1 -p tcp -e 40 -c 2 -a 0 -i 32 -k AGT
+ -t 1.000000000 -s 8 -d -1 -p tcp -e 40 -c 2 -a 0 -i 33 -k AGT 
- -t 1.000000000 -s 8 -d -1 -p tcp -e 40 -c 2 -a 0 -i 33 -k AGT
h -t 1.000000000 -s 8 -d -1 -p tcp -e 40 -c 2 -a 0 -i 33 -k AGT
+ -t 1.000000000 -s 15 -d -1 -p tcp -e 40 -c 2 -a 0 -i 34 -k AGT 
- -t 1.000000000 -s 15 -d -1 -p tcp -e 40 -c 2 -a 0 -i 34 -k AGT
h -t 1.000000000 -s 15 -d -1 -p tcp -e 40 -c 2 -a 0 -i 34 -k AGT
+ -t 1.000000000 -s 5 -d -1 -p tcp -e 40 -c 2 -a 0 -i 35 -k AGT 
- -t 1.000000000 -s 5 -d -1 -p tcp -e 40 -c 2 -a 0 -i 35 -k AGT
h -t 1.000000000 -s 5 -d -1 -p tcp -e 40 -c 2 -a 0 -i 35 -k AGT
+ -t 1.000000000 -s 5 -d 6 -p tcp -e 60 -c 2 -a 0 -i 35 -k RTR 
- -t 1.000000000 -s 5 -d 6 -p tcp -e 60 -c 2 -a 0 -i 35 -k RTR
h -t 1.000000000 -s 5 -d 6 -p tcp -e 60 -c 2 -a 0 -i 35 -k RTR
d -t 1.000000000 -s 5 -d 6 -p tcp -e 60 -c 2 -a 0 -i 22 -k IFQ
+ -t 1.000000000 -s 27 -d -1 -p tcp -e 40 -c 2 -a 0 -i 36 -k AGT 
- -t 1.000000000 -s 27 -d -1 -p tcp -e 40 -c 2 -a 0 -i 36 -k AGT
h -t 1.000000000 -s 27 -d -1 -p tcp -e 40 -c 2 -a 0 -i 36 -k AGT
+ -t 1.000000000 -s 16 -d -1 -p tcp -e 40 -c 2 -a 0 -i 37 -k AGT 
- -t 1.000000000 -s 16 -d -1 -p tcp -e 40 -c 2 -a 0 -i 37 -k AGT
h -t 1.000000000 -s 16 -d -1 -p tcp -e 40 -c 2 -a 0 -i 37 -k AGT
+ -t 1.000000000 -s 10 -d -1 -p tcp -e 40 -c 2 -a 0 -i 38 -k AGT 
- -t 1.000000000 -s 10 -d -1 -p tcp -e 40 -c 2 -a 0 -i 38 -k AGT
h -t 1.000000000 -s 10 -d -1 -p tcp -e 40 -c 2 -a 0 -i 38 -k AGT
+ -t 1.000000000 -s 29 -d -1 -p tcp -e 40 -c 2 -a 0 -i 39 -k AGT 
- -t 1.000000000 -s 29 -d -1 -p tcp -e 40 -c 2 -a 0 -i 39 -k AGT
h -t 1.000000000 -s 29 -d -1 -p tcp -e 40 -c 2 -a 0 -i 39 -k AGT
+ -t 1.000000000 -s 15 -d -1 -p tcp -e 40 -c 2 -a 0 -i 40 -k AGT 
- -t 1.000000000 -s 15 -d -1 -p tcp -e 40 -c 2 -a 0 -i 40 -k AGT
h -t 1.000000000 -s 15 -d -1 -p tcp -e 40 -c 2 -a 0 -i 40 -k AGT
+ -t 1.000000000 -s 30 -d -1 -p tcp -e 40 -c 2 -a 0 -i 41 -k AGT 
- -t 1.000000000 -s 30 -d -1 -p tcp -e 40 -c 2 -a 0 -i 41 -k AGT
h -t 1.000000000 -s 30 -d -1 -p tcp -e 40 -c 2 -a 0 -i 41 -k AGT
+ -t 1.000000000 -s 22 -d -1 -p tcp -e 40 -c 2 -a 0 -i 42 -k AGT 
- -t 1.000000000 -s 22 -d -1 -p tcp -e 40 -c 2 -a 0 -i 42 -k AGT
h -t 1.000000000 -s 22 -d -1 -p tcp -e 40 -c 2 -a 0 -i 42 -k AGT
+ -t 1.000000000 -s 2 -d -1 -p tcp -e 40 -c 2 -a 0 -i 43 -k AGT 
- -t 1.000000000 -s 2 -d -1 -p tcp -e 40 -c 2 -a 0 -i 43 -k AGT
h -t 1.000000000 -s 2 -d -1 -p tcp -e 40 -c 2 -a 0 -i 43 -k AGT
+ -t 1.000000000 -s 11 -d -1 -p tcp -e 40 -c 2 -a 0 -i 44 -k AGT 
- -t 1.000000000 -s 11 -d -1 -p tcp -e 40 -c 2 -a 0 -i 44 -k AGT
h -t 1.000000000 -s 11 -d -1 -p tcp -e 40 -c 2 -a 0 -i 44 -k AGT
+ -t 1.000000000 -s 27 -d -1 -p tcp -e 40 -c 2 -a 0 -i 45 -k AGT 
- -t 1.000000000 -s 27 -d -1 -p tcp -e 40 -c 2 -a 0 -i 45 -k AGT
h -t 1.000000000 -s 27 -d -1 -p tcp -e 40 -c 2 -a 0 -i 45 -k AGT
+ -t 1.000000000 -s 26 -d -1 -p tcp -e 40 -c 2 -a 0 -i 46 -k AGT 
- -t 1.000000000 -s 26 -d -1 -p tcp -e 40 -c 2 -a 0 -i 46 -k AGT
h -t 1.000000000 -s 26 -d -1 -p tcp -e 40 -c 2 -a 0 -i 46 -k AGT
+ -t 1.000000000 -s 39 -d -1 -p tcp -e 40 -c 2 -a 0 -i 47 -k AGT 
- -t 1.000000000 -s 39 -d -1 -p tcp -e 40 -c 2 -a 0 -i 47 -k AGT
h -t 1.000000000 -s 39 -d -1 -p tcp -e 40 -c 2 -a 0 -i 47 -k AGT
+ -t 1.000000000 -s 35 -d -1 -p tcp -e 40 -c 2 -a 0 -i 48 -k AGT 
- -t 1.000000000 -s 35 -d -1 -p tcp -e 40 -c 2 -a 0 -i 48 -k AGT
h -t 1.000000000 -s 35 -d -1 -p tcp -e 40 -c 2 -a 0 -i 48 -k AGT
+ -t 1.000000000 -s 26 -d -1 -p tcp -e 40 -c 2 -a 0 -i 49 -k AGT 
- -t 1.000000000 -s 26 -d -1 -p tcp -e 40 -c 2 -a 0 -i 49 -k AGT
h -t 1.000000000 -s 26 -d -1 -p tcp -e 40 -c 2 -a 0 -i 49 -k AGT
+ -t 1.000000000 -s 0 -d -1 -p tcp -e 40 -c 2 -a 0 -i 50 -k AGT 
- -t 1.000000000 -s 0 -d -1 -p tcp -e 40 -c 2 -a 0 -i 50 -k AGT
h -t 1.000000000 -s 0 -d -1 -p tcp -e 40 -c 2 -a 0 -i 50 -k AGT
r -t 1.007921166 -s 6 -d 6 -p tcp -e 60 -c 2 -a 0 -i 35 -k AGT
+ -t 1.007921166 -s 6 -d -1 -p ack -e 40 -c 2 -a 0 -i 51 -k AGT 
- -t 1.007921166 -s 6 -d -1 -p ack -e 40 -c 2 -a 0 -i 51 -k AGT
h -t 1.007921166 -s 6 -d -1 -p ack -e 40 -c 2 -a 0 -i 51 -k AGT
+ -t 1.007921166 -s 6 -d 5 -p ack -e 60 -c 2 -a 0 -i 51 -k RTR 
- -t 1.007921166 -s 6 -d 5 -p ack -e 60 -c 2 -a 0 -i 51 -k RTR
h -t 1.007921166 -s 6 -d 5 -p ack -e 60 -c 2 -a 0 -i 51 -k RTR
r -t 1.010327666 -s 5 -d 5 -p ack -e 60 -c 2 -a 0 -i 51 -k AGT
+ -t 1.010327666 -s 5 -d -1 -p tcp -e 1040 -c 2 -a 0 -i 52 -k AGT 
- -t 1.010327666 -s 5 -d -1 -p tcp -e 1040 -c 2 -a 0 -i 52 -k AGT
h -t 1.010327666 -s 5 -d -1 -p tcp -e 1040 -c 2 -a 0 -i 52 -k AGT
+ -t 1.010327666 -s 5 -d 6 -p tcp -e 1060 -c 2 -a 0 -i 52 -k RTR 
- -t 1.010327666 -s 5 -d 6 -p tcp -e 1060 -c 2 -a 0 -i 52 -k RTR
h -t 1.010327666 -s 5 -d 6 -p tcp -e 1060 -c 2 -a 0 -i 52 -k RTR
+ -t 1.010327666 -s 5 -d -1 -p tcp -e 1040 -c 2 -a 0 -i 53 -k AGT 
- -t 1.010327666 -s 5 -d -1 -p tcp -e 1040 -c 2 -a 0 -i 53 -k AGT
h -t 1.010327666 -s 5 -d -1 -p tcp -e 1040 -c 2 -a 0 -i 53 -k AGT
+ -t 1.010327666 -s 5 -d 6 -p tcp -e 1060 -c 2 -a 0 -i 53 -k RTR 
- -t 1.010327666 -s 5 -d 6 -p tcp -e 1060 -c 2 -a 0 -i 53 -k RTR
h -t 1.010327666 -s 5 -d 6 -p tcp -e 1060 -c 2 -a 0 -i 53 -k RTR
r -t 1.020314166 -s 6 -d 6 -p tcp -e 1060 -c 2 -a 0 -i 52 -k AGT
+ -t 1.020314166 -s 6 -d -1 -p ack -e 40 -c 2 -a 0 -i 54 -k AGT 
- -t 1.020314166 -s 6 -d -1 -p ack -e 40 -c 2 -a 0 -i 54 -k AGT
h -t 1.020314166 -s 6 -d -1 -p ack -e 40 -c 2 -a 0 -i 54 -k AGT
+ -t 1.020314166 -s 6 -d 5 -p ack -e 60 -c 2 -a 0 -i 54 -k RTR 
- -t 1.020314166 -s 6 -d 5 -p ack -e 60 -c 2 -a 0 -i 54 -k RTR
h -t 1.020314166 -s 6 -d 5 -p ack -e 60 -c 2 -a 0 -i 54 -k RTR
r -t 1.022380666 -s 5 -d 5 -p ack -e 60 -c 2 -a 0 -i 54 -k AGT
+ -t 1.022380666 -s 5 -d -1 -p tcp -e 1040 -c 2 -a 0 -i 55 -k AGT 
- -t 1.022380666 -s 5 -d -1 -p tcp -e 1040 -c 2 -a 0 -i 55 -k AGT
h -t 1.022380666 -s 5 -d -1 -p tcp -e 1040 -c 2 -a 0 -i 55 -k AGT
+ -t 1.022380666 -s 5 -d 6 -p tcp -e 1060 -c 2 -a 0 -i 55 -k RTR 
- -t 1.022380666 -s 5 -d 6 -p tcp -e 1060 -c 2 -a 0 -i 55 -k RTR
h -t 1.022380666 -s 5 -d 6 -p tcp -e 1060 -c 2 -a 0 -i 55 -k RTR
+ -t 1.022380666 -s 5 -d -1 -p tcp -e 1040 -c 2 -a 0 -i 56 -k AGT 
- -t 1.022380666 -s 5 -d -1 -p tcp -e 1040 -c 2 -a 0 -i 56 -k AGT
h -t 1.022380666 -s 5 -d -1 -p tcp -e 1040 -c 2 -a 0 -i 56 -k AGT
+ -t 1.022380666 -s 5 -d 6 -p tcp -e 1060 -c 2 -a 0 -i 56 -k RTR 
- -t 1.022380666 -s 5 -d 6 -p tcp -e 1060 -c 2 -a 0 -i 56 -k RTR
h -t 1.022380666 -s 5 -d 6 -p tcp -e 1060 -c 2 -a 0 -i 56 -k RTR
r -t 1.032867165 -s 6 -d 6 -p tcp -e 1060 -c 2 -a 0 -i 53 -k AGT
+ -t 1.032867165 -s 6 -d -1 -p ack -e 40 -c 2 -a 0 -i 57 -k AGT 
- -t 1.032867165 -s 6 -d -1 -p ack -e 40 -c 2 -a 0 -i 57 -k AGT
h -t 1.032867165 -s 6 -d -1 -p ack -e 40 -c 2 -a 0 -i 57 -k AGT
+ -t 1.032867165 -s 6 -d 5 -p ack -e 60 -c 2 -a 0 -i 57 -k RTR 
- -t 1.032867165 -s 6 -d 5 -p ack -e 60 -c 2 -a 0 -i 57 -k RTR
h -t 1.032867165 -s 6 -d 5 -p ack -e 60 -c 2 -a 0 -i 57 -k RTR
r -t 1.043174498 -s 6 -d 6 -p tcp -e 1060 -c 2 -a 0 -i 55 -k AGT
+ -t 1.043174498 -s 6 -d -1 -p ack -e 40 -c 2 -a 0 -i 58 -k AGT 
- -t 1.043174498 -s 6 -d -1 -p ack -e 40 -c 2 -a 0 -i 58 -k AGT
h -t 1.043174498 -s 6 -d -1 -p ack -e 40 -c 2 -a 0 -i 58 -k AGT
+ -t 1.043174498 -s 6 -d 5 -p ack -e 60 -c 2 -a 0 -i 58 -k RTR 
- -t 1.043174498 -s 6 -d 5 -p ack -e 60 -c 2 -a 0 -i 58 -k RTR
h -t 1.043174498 -s 6 -d 5 -p ack -e 60 -c 2 -a 0 -i 58 -k RTR
r -t 1.045180997 -s 5 -d 5 -p ack -e 60 -c 2 -a 0 -i 57 -k AGT
+ -t 1.045180997 -s 5 -d -1 -p tcp -e 1040 -c 2 -a 0 -i 59 -k AGT 
- -t 1.045180997 -s 5 -d -1 -p tcp -e 1040 -c 2 -a 0 -i 59 -k AGT
h -t 1.045180997 -s 5 -d -1 -p tcp -e 1040 -c 2 -a 0 -i 59 -k AGT
+ -t 1.045180997 -s 5 -d 6 -p tcp -e 1060 -c 2 -a 0 -i 59 -k RTR 
- -t 1.045180997 -s 5 -d 6 -p tcp -e 1060 -c 2 -a 0 -i 59 -k RTR
h -t 1.045180997 -s 5 -d 6 -p tcp -e 1060 -c 2 -a 0 -i 59 -k RTR
+ -t 1.045180997 -s 5 -d -1 -p tcp -e 1040 -c 2 -a 0 -i 60 -k AGT 
- -t 1.045180997 -s 5 -d -1 -p tcp -e 1040 -c 2 -a 0 -i 60 -k AGT
h -t 1.045180997 -s 5 -d -1 -p tcp -e 1040 -c 2 -a 0 -i 60 -k AGT
+ -t 1.045180997 -s 5 -d 6 -p tcp -e 1060 -c 2 -a 0 -i 60 -k RTR 
- -t 1.045180997 -s 5 -d 6 -p tcp -e 1060 -c 2 -a 0 -i 60 -k RTR
h -t 1.045180997 -s 5 -d 6 -p tcp -e 1060 -c 2 -a 0 -i 60 -k RTR
r -t 1.047208330 -s 5 -d 5 -p ack -e 60 -c 2 -a 0 -i 58 -k AGT
+ -t 1.047208330 -s 5 -d -1 -p tcp -e 1040 -c 2 -a 0 -i 61 -k AGT 
- -t 1.047208330 -s 5 -d -1 -p tcp -e 1040 -c 2 -a 0 -i 61 -k AGT
h -t 1.047208330 -s 5 -d -1 -p tcp -e 1040 -c 2 -a 0 -i 61 -k AGT
+ -t 1.047208330 -s 5 -d 6 -p tcp -e 1060 -c 2 -a 0 -i 61 -k RTR 
- -t 1.047208330 -s 5 -d 6 -p tcp -e 1060 -c 2 -a 0 -i 61 -k RTR
h -t 1.047208330 -s 5 -d 6 -p tcp -e 1060 -c 2 -a 0 -i 61 -k RTR
+ -t 1.047208330 -s 5 -d -1 -p tcp -e 1040 -c 2 -a 0 -i 62 -k AGT 
- -t 1.047208330 -s 5 -d -1 -p tcp -e 1040 -c 2 -a 0 -i 62 -k AGT
h -t 1.047208330 -s 5 -d -1 -p tcp -e 1040 -c 2 -a 0 -i 62 -k AGT
+ -t 1.047208330 -s 5 -d 6 -p tcp -e 1060 -c 2 -a 0 -i 62 -k RTR 
- -t 1.047208330 -s 5 -d 6 -p tcp -e 1060 -c 2 -a 0 -i 62 -k RTR
h -t 1.047208330 -s 5 -d 6 -p tcp -e 1060 -c 2 -a 0 -i 62 -k RTR
r -t 1.057634829 -s 6 -d 6 -p tcp -e 1060 -c 2 -a 0 -i 56 -k AGT
+ -t 1.057634829 -s 6 -d -1 -p ack -e 40 -c 2 -a 0 -i 63 -k AGT 
- -t 1.057634829 -s 6 -d -1 -p ack -e 40 -c 2 -a 0 -i 63 -k AGT
h -t 1.057634829 -s 6 -d -1 -p ack -e 40 -c 2 -a 0 -i 63 -k AGT
+ -t 1.057634829 -s 6 -d 5 -p ack -e 60 -c 2 -a 0 -i 63 -k RTR 
- -t 1.057634829 -s 6 -d 5 -p ack -e 60 -c 2 -a 0 -i 63 -k RTR
h -t 1.057634829 -s 6 -d 5 -p ack -e 60 -c 2 -a 0 -i 63 -k RTR
r -t 1.059721328 -s 5 -d 5 -p ack -e 60 -c 2 -a 0 -i 63 -k AGT
+ -t 1.059721328 -s 5 -d -1 -p tcp -e 1040 -c 2 -a 0 -i 64 -k AGT 
- -t 1.059721328 -s 5 -d -1 -p tcp -e 1040 -c 2 -a 0 -i 64 -k AGT
h -t 1.059721328 -s 5 -d -1 -p tcp -e 1040 -c 2 -a 0 -i 64 -k AGT
+ -t 1.059721328 -s 5 -d 6 -p tcp -e 1060 -c 2 -a 0 -i 64 -k RTR 
- -t 1.059721328 -s 5 -d 6 -p tcp -e 1060 -c 2 -a 0 -i 64 -k RTR
h -t 1.059721328 -s 5 -d 6 -p tcp -e 1060 -c 2 -a 0 -i 64 -k RTR
+ -t 1.059721328 -s 5 -d -1 -p tcp -e 1040 -c 2 -a 0 -i 65 -k AGT 
- -t 1.059721328 -s 5 -d -1 -p tcp -e 1040 -c 2 -a 0 -i 65 -k AGT
h -t 1.059721328 -s 5 -d -1 -p tcp -e 1040 -c 2 -a 0 -i 65 -k AGT
+ -t 1.059721328 -s 5 -d 6 -p tcp -e 1060 -c 2 -a 0 -i 65 -k RTR 
- -t 1.059721328 -s 5 -d 6 -p tcp -e 1060 -c 2 -a 0 -i 65 -k RTR
h -t 1.059721328 -s 5 -d 6 -p tcp -e 1060 -c 2 -a 0 -i 65 -k RTR
r -t 1.070127827 -s 6 -d 6 -p tcp -e 1060 -c 2 -a 0 -i 59 -k AGT