n -t * -s 0  -x 0 -y 0 -Z 0 -z 20  -v circle -c black
n -t * -s 1  -x 0 -y 125 -Z 0 -z 20  -v circle -c black
n -t * -s 2  -x 0 -y 250 -Z 0 -z 20  -v circle -c black
n -t * -s 3  -x 0 -y 375 -Z 0 -z 20  -v circle -c black
n -t * -s 4  -x 50 -y 0 -Z 0 -z 20  -v circle -c black
n -t * -s 5  -x 50 -y 125 -Z 0 -z 20  -v circle -c black
n -t * -s 6  -x 50 -y 250 -Z 0 -z 20  -v circle -c black
n -t * -s 7  -x 50 -y 375 -Z 0 -z 20  -v circle -c black
n -t * -s 8  -x 100 -y 0 -Z 0 -z 20  -v circle -c black
n -t * -s 9  -x 100 -y 125 -Z 0 -z 20  -v circle -c black
n -t * -s 10  -x 100 -y 250 -Z 0 -z 20  -v circle -c black
n -t * -s 11  -x 100 -y 375 -Z 0 -z 20  -v circle -c black
n -t * -s 12  -x 150 -y 0 -Z 0 -z 20  -v circle -c black
n -t * -s 13  -x 150 -y 125 -Z 0 -z 20  -v circle -c black
n -t * -s 14  -x 150 -y 250 -Z 0 -z 20  -v circle -c black
n -t * -s 15  -x 150 -y 375 -Z 0 -z 20  -v circle -c black
n -t * -s 16  -x 200 -y 0 -Z 0 -z 20  -v circle -c black
n -t * -s 17  -x 200 -y 125 -Z 0 -z 20  -v circle -c black
n -t * -s 18  -x 200 -y 250 -Z 0 -z 20  -v circle -c black
n -t * -s 19  -x 200 -y 375 -Z 0 -z 20  -v circle -c black
n -t * -s 20  -x 250 -y 0 -Z 0 -z 20  -v circle -c black
n -t * -s 21  -x 250 -y 125 -Z 0 -z 20  -v circle -c black
n -t * -s 22  -x 250 -y 250 -Z 0 -z 20  -v circle -c black
n -t * -s 23  -x 250 -y 375 -Z 0 -z 20  -v circle -c black
n -t * -s 24  -x 300 -y 0 -Z 0 -z 20  -v circle -c black
n -t * -s 25  -x 300 -y 125 -Z 0 -z 20  -v circle -c black
n -t * -s 26  -x 300 -y 250 -Z 0 -z 20  -v circle -c black
n -t * -s 27  -x 300 -y 375 -Z 0 -z 20  -v circle -c black
n -t * -s 28  -x 350 -y 0 -Z 0 -z 20  -v circle -c black
n -t * -s 29  -x 350 -y 125 -Z 0 -z 20  -v circle -c black
n -t * -s 30  -x 350 -y 250 -Z 0 -z 20  -v circle -c black
n -t * -s 31  -x 350 -y 375 -Z 0 -z 20  -v circle -c black
n -t * -s 32  -x 400 -y 0 -Z 0 -z 20  -v circle -c black
n -t * -s 33  -x 400 -y 125 -Z 0 -z 20  -v circle -c black
n -t * -s 34  -x 400 -y 250 -Z 0 -z 20  -v circle -c black
n -t * -s 35  -x 400 -y 375 -Z 0 -z 20  -v circle -c black
n -t * -s 36  -x 450 -y 0 -Z 0 -z 20  -v circle -c black
n -t * -s 37  -x 450 -y 125 -Z 0 -z 20  -v circle -c black
n -t * -s 38  -x 450 -y 250 -Z 0 -z 20  -v circle -c black
n -t * -s 39  -x 450 -y 375 -Z 0 -z 20  -v circle -c black
V -t * -v 1.0a5 -a 0
W -t * -x 1000 -y 1000
A -t * -n 1 -p 0 -o 0x7fffffff -c 30 -a 1
A -t * -h 1 -m 1073741823 -s 0
n -t 1.000000 -s 0 -x 0.000000 -y 0.000000 -U 2.282979 -V 1.946280 -T 121.770732
n -t 1.000000 -s 1 -x 0.000000 -y 125.000000 -U 3.242904 -V 2.341703 -T 140.923073
n -t 1.000000 -s 2 -x 0.000000 -y 250.000000 -U 3.918823 -V -0.801763 -T 122.230571
n -t 1.000000 -s 3 -x 0.000000 -y 375.000000 -U 3.261649 -V -2.315522 -T 40.163727
n -t 1.000000 -s 4 -x 50.000000 -y 0.000000 -U 1.998137 -V 0.086298 -T 150.640300
n -t 1.000000 -s 5 -x 50.000000 -y 125.000000 -U 0.780003 -V 0.625775 -T 564.100168
n -t 1.000000 -s 6 -x 50.000000 -y 250.000000 -U 0.969936 -V -1.749064 -T 125.781557
n -t 1.000000 -s 7 -x 50.000000 -y 375.000000 -U 1.885598 -V -2.333349 -T 158.570349
n -t 1.000000 -s 8 -x 100.000000 -y 0.000000 -U 2.405591 -V 3.195799 -T 143.000219
n -t 1.000000 -s 9 -x 100.000000 -y 125.000000 -U 1.827975 -V -0.811484 -T 117.069424
n -t 1.000000 -s 10 -x 100.000000 -y 250.000000 -U 3.998368 -V -0.114239 -T 17.507141
n -t 1.000000 -s 11 -x 100.000000 -y 375.000000 -U -0.274128 -V -0.961693 -T 222.524156
n -t 1.000000 -s 12 -x 150.000000 -y 0.000000 -U 3.981459 -V 0.384682 -T 51.990985
n -t 1.000000 -s 13 -x 150.000000 -y 125.000000 -U -0.883772 -V 2.866871 -T 92.784098
n -t 1.000000 -s 14 -x 150.000000 -y 250.000000 -U 2.424709 -V -1.766574 -T 115.477752
n -t 1.000000 -s 15 -x 150.000000 -y 375.000000 -U 2.802156 -V 1.071412 -T 72.801099
n -t 1.000000 -s 16 -x 200.000000 -y 0.000000 -U -0.126063 -V 3.998013 -T 111.055166
n -t 1.000000 -s 17 -x 200.000000 -y 125.000000 -U -1.998960 -V 0.064483 -T 93.048375
n -t 1.000000 -s 18 -x 200.000000 -y 250.000000 -U 3.632212 -V 1.675422 -T 78.189274
n -t 1.000000 -s 19 -x 200.000000 -y 375.000000 -U 2.863440 -V 0.894825 -T 89.402958
n -t 1.000000 -s 20 -x 250.000000 -y 0.000000 -U 0.173026 -V 0.984917 -T 375.666075
n -t 1.000000 -s 21 -x 250.000000 -y 125.000000 -U -2.865586 -V 0.887928 -T 24.776781
n -t 1.000000 -s 22 -x 250.000000 -y 250.000000 -U -2.997056 -V 0.132874 -T 67.733136
n -t 1.000000 -s 23 -x 250.000000 -y 375.000000 -U -3.137662 -V -2.480942 -T 68.522350
n -t 1.000000 -s 24 -x 300.000000 -y 0.000000 -U -0.209766 -V 2.992657 -T 143.016705
n -t 1.000000 -s 25 -x 300.000000 -y 125.000000 -U -1.180033 -V 1.614782 -T 96.607453
n -t 1.000000 -s 26 -x 300.000000 -y 250.000000 -U -3.955631 -V -0.594126 -T 63.959460
n -t 1.000000 -s 27 -x 300.000000 -y 375.000000 -U 3.248061 -V 2.334544 -T 49.260151
n -t 1.000000 -s 28 -x 350.000000 -y 0.000000 -U -1.850844 -V 2.361012 -T 84.285889
n -t 1.000000 -s 29 -x 350.000000 -y 125.000000 -U -0.213697 -V 0.976900 -T 360.323466
n -t 1.000000 -s 30 -x 350.000000 -y 250.000000 -U -3.473791 -V -1.983122 -T 75.134047
n -t 1.000000 -s 31 -x 350.000000 -y 375.000000 -U -1.114172 -V -2.785430 -T 111.293406
n -t 1.000000 -s 32 -x 400.000000 -y 0.000000 -U -2.134841 -V 3.382670 -T 133.031011
n -t 1.000000 -s 33 -x 400.000000 -y 125.000000 -U -2.867809 -V 0.880723 -T 137.387125
n -t 1.000000 -s 34 -x 400.000000 -y 250.000000 -U -1.607928 -V 1.189356 -T 195.904313
n -t 1.000000 -s 35 -x 400.000000 -y 375.000000 -U -1.282543 -V -1.534628 -T 226.113357
n -t 1.000000 -s 36 -x 450.000000 -y 0.000000 -U -3.984379 -V 0.353161 -T 110.431257
n -t 1.000000 -s 37 -x 450.000000 -y 125.000000 -U -0.020477 -V 2.999930 -T 97.668942
n -t 1.000000 -s 38 -x 450.000000 -y 250.000000 -U -1.913155 -V 0.582956 -T 188.693535
n -t 1.000000 -s 39 -x 450.000000 -y 375.000000 -U -1.780087 -V -0.911752 -T 92.130342
+ -t 1.002671049 -s 10 -d -1 -p tcp -e 40 -c 2 -a 0 -i 0 -k AGT 
- -t 1.002671049 -s 10 -d -1 -p tcp -e 40 -c 2 -a 0 -i 0 -k AGT
h -t 1.002671049 -s 10 -d -1 -p tcp -e 40 -c 2 -a 0 -i 0 -k AGT
+ -t 1.009070202 -s 10 -d -1 -p DSR -e 32 -c 2 -a 0 -i 1 -k RTR 
- -t 1.009070202 -s 10 -d -1 -p DSR -e 32 -c 2 -a 0 -i 1 -k RTR
h -t 1.009070202 -s 10 -d -1 -p DSR -e 32 -c 2 -a 0 -i 1 -k RTR
+ -t 1.039969272 -s 19 -d -1 -p tcp -e 40 -c 2 -a 0 -i 3 -k AGT 
- -t 1.039969272 -s 19 -d -1 -p tcp -e 40 -c 2 -a 0 -i 3 -k AGT
h -t 1.039969272 -s 19 -d -1 -p tcp -e 40 -c 2 -a 0 -i 3 -k AGT
+ -t 1.043634031 -s 19 -d -1 -p DSR -e 32 -c 2 -a 0 -i 4 -k RTR 
- -t 1.043634031 -s 19 -d -1 -p DSR -e 32 -c 2 -a 0 -i 4 -k RTR
h -t 1.043634031 -s 19 -d -1 -p DSR -e 32 -c 2 -a 0 -i 4 -k RTR
+ -t 1.073237816 -s 8 -d -1 -p tcp -e 40 -c 2 -a 0 -i 6 -k AGT 
- -t 1.073237816 -s 8 -d -1 -p tcp -e 40 -c 2 -a 0 -i 6 -k AGT
h -t 1.073237816 -s 8 -d -1 -p tcp -e 40 -c 2 -a 0 -i 6 -k AGT
+ -t 1.076995102 -s 8 -d -1 -p DSR -e 32 -c 2 -a 0 -i 7 -k RTR 
- -t 1.076995102 -s 8 -d -1 -p DSR -e 32 -c 2 -a 0 -i 7 -k RTR
h -t 1.076995102 -s 8 -d -1 -p DSR -e 32 -c 2 -a 0 -i 7 -k RTR
+ -t 1.084903871 -s 0 -d -1 -p tcp -e 40 -c 2 -a 0 -i 9 -k AGT 
- -t 1.084903871 -s 0 -d -1 -p tcp -e 40 -c 2 -a 0 -i 9 -k AGT
h -t 1.084903871 -s 0 -d -1 -p tcp -e 40 -c 2 -a 0 -i 9 -k AGT
+ -t 1.091246481 -s 35 -d -1 -p tcp -e 40 -c 2 -a 0 -i 11 -k AGT 
- -t 1.091246481 -s 35 -d -1 -p tcp -e 40 -c 2 -a 0 -i 11 -k AGT
h -t 1.091246481 -s 35 -d -1 -p tcp -e 40 -c 2 -a 0 -i 11 -k AGT
+ -t 1.093208261 -s 0 -d -1 -p DSR -e 32 -c 2 -a 0 -i 10 -k RTR 
- -t 1.093208261 -s 0 -d -1 -p DSR -e 32 -c 2 -a 0 -i 10 -k RTR
h -t 1.093208261 -s 0 -d -1 -p DSR -e 32 -c 2 -a 0 -i 10 -k RTR
+ -t 1.093404119 -s 10 -d -1 -p DSR -e 32 -c 2 -a 0 -i 8 -k RTR 
- -t 1.093404119 -s 10 -d -1 -p DSR -e 32 -c 2 -a 0 -i 8 -k RTR
h -t 1.093404119 -s 10 -d -1 -p DSR -e 32 -c 2 -a 0 -i 8 -k RTR
+ -t 1.094364122 -s 23 -d -1 -p DSR -e 48 -c 2 -a 0 -i 8 -k RTR 
- -t 1.094364122 -s 23 -d -1 -p DSR -e 48 -c 2 -a 0 -i 8 -k RTR
h -t 1.094364122 -s 23 -d -1 -p DSR -e 48 -c 2 -a 0 -i 8 -k RTR
+ -t 1.095049182 -s 13 -d -1 -p DSR -e 48 -c 2 -a 0 -i 8 -k RTR 
- -t 1.095049182 -s 13 -d -1 -p DSR -e 48 -c 2 -a 0 -i 8 -k RTR
h -t 1.095049182 -s 13 -d -1 -p DSR -e 48 -c 2 -a 0 -i 8 -k RTR
+ -t 1.095488935 -s 21 -d -1 -p DSR -e 48 -c 2 -a 0 -i 8 -k RTR 
- -t 1.095488935 -s 21 -d -1 -p DSR -e 48 -c 2 -a 0 -i 8 -k RTR
h -t 1.095488935 -s 21 -d -1 -p DSR -e 48 -c 2 -a 0 -i 8 -k RTR
+ -t 1.095820802 -s 9 -d -1 -p DSR -e 48 -c 2 -a 0 -i 8 -k RTR 
- -t 1.095820802 -s 9 -d -1 -p DSR -e 48 -c 2 -a 0 -i 8 -k RTR
h -t 1.095820802 -s 9 -d -1 -p DSR -e 48 -c 2 -a 0 -i 8 -k RTR
+ -t 1.095945701 -s 6 -d -1 -p DSR -e 48 -c 2 -a 0 -i 8 -k RTR 
- -t 1.095945701 -s 6 -d -1 -p DSR -e 48 -c 2 -a 0 -i 8 -k RTR
h -t 1.095945701 -s 6 -d -1 -p DSR -e 48 -c 2 -a 0 -i 8 -k RTR
+ -t 1.095969684 -s 18 -d -1 -p DSR -e 48 -c 2 -a 0 -i 8 -k RTR 
- -t 1.095969684 -s 18 -d -1 -p DSR -e 48 -c 2 -a 0 -i 8 -k RTR
h -t 1.095969684 -s 18 -d -1 -p DSR -e 48 -c 2 -a 0 -i 8 -k RTR
+ -t 1.096824874 -s 11 -d -1 -p DSR -e 48 -c 2 -a 0 -i 8 -k RTR 
- -t 1.096824874 -s 11 -d -1 -p DSR -e 48 -c 2 -a 0 -i 8 -k RTR
h -t 1.096824874 -s 11 -d -1 -p DSR -e 48 -c 2 -a 0 -i 8 -k RTR
+ -t 1.097778219 -s 24 -d -1 -p DSR -e 68 -c 2 -a 0 -i 8 -k RTR 
- -t 1.097778219 -s 24 -d -1 -p DSR -e 68 -c 2 -a 0 -i 8 -k RTR
h -t 1.097778219 -s 24 -d -1 -p DSR -e 68 -c 2 -a 0 -i 8 -k RTR
+ -t 1.098073844 -s 35 -d -1 -p DSR -e 68 -c 2 -a 0 -i 8 -k RTR 
- -t 1.098073844 -s 35 -d -1 -p DSR -e 68 -c 2 -a 0 -i 8 -k RTR
h -t 1.098073844 -s 35 -d -1 -p DSR -e 68 -c 2 -a 0 -i 8 -k RTR
+ -t 1.098403985 -s 17 -d -1 -p DSR -e 48 -c 2 -a 0 -i 8 -k RTR 
- -t 1.098403985 -s 17 -d -1 -p DSR -e 48 -c 2 -a 0 -i 8 -k RTR
h -t 1.098403985 -s 17 -d -1 -p DSR -e 48 -c 2 -a 0 -i 8 -k RTR
+ -t 1.098512529 -s 26 -d -1 -p DSR -e 48 -c 2 -a 0 -i 8 -k RTR 
- -t 1.098512529 -s 26 -d -1 -p DSR -e 48 -c 2 -a 0 -i 8 -k RTR
h -t 1.098512529 -s 26 -d -1 -p DSR -e 48 -c 2 -a 0 -i 8 -k RTR
+ -t 1.098570646 -s 2 -d -1 -p DSR -e 48 -c 2 -a 0 -i 8 -k RTR 
- -t 1.098570646 -s 2 -d -1 -p DSR -e 48 -c 2 -a 0 -i 8 -k RTR
h -t 1.098570646 -s 2 -d -1 -p DSR -e 48 -c 2 -a 0 -i 8 -k RTR
+ -t 1.098865248 -s 27 -d -1 -p DSR -e 48 -c 2 -a 0 -i 8 -k RTR 
- -t 1.098865248 -s 27 -d -1 -p DSR -e 48 -c 2 -a 0 -i 8 -k RTR
h -t 1.098865248 -s 27 -d -1 -p DSR -e 48 -c 2 -a 0 -i 8 -k RTR
+ -t 1.099064315 -s 37 -d -1 -p DSR -e 68 -c 2 -a 0 -i 8 -k RTR 
- -t 1.099064315 -s 37 -d -1 -p DSR -e 68 -c 2 -a 0 -i 8 -k RTR
h -t 1.099064315 -s 37 -d -1 -p DSR -e 68 -c 2 -a 0 -i 8 -k RTR
+ -t 1.099136049 -s 25 -d -1 -p DSR -e 48 -c 2 -a 0 -i 8 -k RTR 
- -t 1.099136049 -s 25 -d -1 -p DSR -e 48 -c 2 -a 0 -i 8 -k RTR
h -t 1.099136049 -s 25 -d -1 -p DSR -e 48 -c 2 -a 0 -i 8 -k RTR
+ -t 1.099256967 -s 35 -d -1 -p DSR -e 32 -c 2 -a 0 -i 12 -k RTR 
- -t 1.099256967 -s 35 -d -1 -p DSR -e 32 -c 2 -a 0 -i 12 -k RTR
h -t 1.099256967 -s 35 -d -1 -p DSR -e 32 -c 2 -a 0 -i 12 -k RTR
+ -t 1.099538025 -s 22 -d -1 -p DSR -e 48 -c 2 -a 0 -i 8 -k RTR 
- -t 1.099538025 -s 22 -d -1 -p DSR -e 48 -c 2 -a 0 -i 8 -k RTR
h -t 1.099538025 -s 22 -d -1 -p DSR -e 48 -c 2 -a 0 -i 8 -k RTR
+ -t 1.099586000 -s 3 -d -1 -p DSR -e 48 -c 2 -a 0 -i 8 -k RTR 
- -t 1.099586000 -s 3 -d -1 -p DSR -e 48 -c 2 -a 0 -i 8 -k RTR
h -t 1.099586000 -s 3 -d -1 -p DSR -e 48 -c 2 -a 0 -i 8 -k RTR
+ -t 1.099945351 -s 1 -d -1 -p DSR -e 48 -c 2 -a 0 -i 8 -k RTR 
- -t 1.099945351 -s 1 -d -1 -p DSR -e 48 -c 2 -a 0 -i 8 -k RTR
h -t 1.099945351 -s 1 -d -1 -p DSR -e 48 -c 2 -a 0 -i 8 -k RTR
+ -t 1.100007849 -s 29 -d -1 -p DSR -e 68 -c 2 -a 0 -i 8 -k RTR 
- -t 1.100007849 -s 29 -d -1 -p DSR -e 68 -c 2 -a 0 -i 8 -k RTR
h -t 1.100007849 -s 29 -d -1 -p DSR -e 68 -c 2 -a 0 -i 8 -k RTR
+ -t 1.100202492 -s 38 -d -1 -p DSR -e 68 -c 2 -a 0 -i 8 -k RTR 
- -t 1.100202492 -s 38 -d -1 -p DSR -e 68 -c 2 -a 0 -i 8 -k RTR
h -t 1.100202492 -s 38 -d -1 -p DSR -e 68 -c 2 -a 0 -i 8 -k RTR
+ -t 1.100346942 -s 8 -d -1 -p DSR -e 48 -c 2 -a 0 -i 8 -k RTR 
- -t 1.100346942 -s 8 -d -1 -p DSR -e 48 -c 2 -a 0 -i 8 -k RTR
h -t 1.100346942 -s 8 -d -1 -p DSR -e 48 -c 2 -a 0 -i 8 -k RTR
+ -t 1.100431447 -s 19 -d -1 -p DSR -e 48 -c 2 -a 0 -i 8 -k RTR 
- -t 1.100431447 -s 19 -d -1 -p DSR -e 48 -c 2 -a 0 -i 8 -k RTR
h -t 1.100431447 -s 19 -d -1 -p DSR -e 48 -c 2 -a 0 -i 8 -k RTR
+ -t 1.100824902 -s 7 -d -1 -p DSR -e 48 -c 2 -a 0 -i 8 -k RTR 
- -t 1.100824902 -s 7 -d -1 -p DSR -e 48 -c 2 -a 0 -i 8 -k RTR
h -t 1.100824902 -s 7 -d -1 -p DSR -e 48 -c 2 -a 0 -i 8 -k RTR
+ -t 1.101555001 -s 15 -d -1 -p DSR -e 48 -c 2 -a 0 -i 8 -k RTR 
- -t 1.101555001 -s 15 -d -1 -p DSR -e 48 -c 2 -a 0 -i 8 -k RTR
h -t 1.101555001 -s 15 -d -1 -p DSR -e 48 -c 2 -a 0 -i 8 -k RTR
+ -t 1.102366891 -s 16 -d -1 -p DSR -e 68 -c 2 -a 0 -i 8 -k RTR 
- -t 1.102366891 -s 16 -d -1 -p DSR -e 68 -c 2 -a 0 -i 8 -k RTR
h -t 1.102366891 -s 16 -d -1 -p DSR -e 68 -c 2 -a 0 -i 8 -k RTR
+ -t 1.102530570 -s 34 -d -1 -p DSR -e 68 -c 2 -a 0 -i 8 -k RTR 
- -t 1.102530570 -s 34 -d -1 -p DSR -e 68 -c 2 -a 0 -i 8 -k RTR
h -t 1.102530570 -s 34 -d -1 -p DSR -e 68 -c 2 -a 0 -i 8 -k RTR
+ -t 1.102658417 -s 30 -d -1 -p DSR -e 48 -c 2 -a 0 -i 8 -k RTR 
- -t 1.102658417 -s 30 -d -1 -p DSR -e 48 -c 2 -a 0 -i 8 -k RTR
h -t 1.102658417 -s 30 -d -1 -p DSR -e 48 -c 2 -a 0 -i 8 -k RTR
+ -t 1.102725876 -s 5 -d -1 -p DSR -e 48 -c 2 -a 0 -i 8 -k RTR 
- -t 1.102725876 -s 5 -d -1 -p DSR -e 48 -c 2 -a 0 -i 8 -k RTR
h -t 1.102725876 -s 5 -d -1 -p DSR -e 48 -c 2 -a 0 -i 8 -k RTR
+ -t 1.102892717 -s 4 -d -1 -p DSR -e 68 -c 2 -a 0 -i 8 -k RTR 
- -t 1.102892717 -s 4 -d -1 -p DSR -e 68 -c 2 -a 0 -i 8 -k RTR
h -t 1.102892717 -s 4 -d -1 -p DSR -e 68 -c 2 -a 0 -i 8 -k RTR
+ -t 1.103375518 -s 14 -d -1 -p DSR -e 48 -c 2 -a 0 -i 8 -k RTR 
- -t 1.103375518 -s 14 -d -1 -p DSR -e 48 -c 2 -a 0 -i 8 -k RTR
h -t 1.103375518 -s 14 -d -1 -p DSR -e 48 -c 2 -a 0 -i 8 -k RTR
+ -t 1.104254481 -s 31 -d -1 -p DSR -e 68 -c 2 -a 0 -i 8 -k RTR 
- -t 1.104254481 -s 31 -d -1 -p DSR -e 68 -c 2 -a 0 -i 8 -k RTR
h -t 1.104254481 -s 31 -d -1 -p DSR -e 68 -c 2 -a 0 -i 8 -k RTR
+ -t 1.104892934 -s 39 -d 23 -p DSR -e 52 -c 2 -a 0 -i 14 -k RTR 
- -t 1.104892934 -s 39 -d 23 -p DSR -e 52 -c 2 -a 0 -i 14 -k RTR
h -t 1.104892934 -s 39 -d 23 -p DSR -e 52 -c 2 -a 0 -i 14 -k RTR
+ -t 1.104999109 -s 0 -d -1 -p DSR -e 68 -c 2 -a 0 -i 8 -k RTR 
- -t 1.104999109 -s 0 -d -1 -p DSR -e 68 -c 2 -a 0 -i 8 -k RTR
h -t 1.104999109 -s 0 -d -1 -p DSR -e 68 -c 2 -a 0 -i 8 -k RTR
+ -t 1.105497670 -s 36 -d -1 -p DSR -e 68 -c 2 -a 0 -i 8 -k RTR 
- -t 1.105497670 -s 36 -d -1 -p DSR -e 68 -c 2 -a 0 -i 8 -k RTR
h -t 1.105497670 -s 36 -d -1 -p DSR -e 68 -c 2 -a 0 -i 8 -k RTR
+ -t 1.106486134 -s 20 -d -1 -p DSR -e 68 -c 2 -a 0 -i 8 -k RTR 
- -t 1.106486134 -s 20 -d -1 -p DSR -e 68 -c 2 -a 0 -i 8 -k RTR
h -t 1.106486134 -s 20 -d -1 -p DSR -e 68 -c 2 -a 0 -i 8 -k RTR
+ -t 1.106693377 -s 12 -d -1 -p DSR -e 68 -c 2 -a 0 -i 8 -k RTR 
- -t 1.106693377 -s 12 -d -1 -p DSR -e 68 -c 2 -a 0 -i 8 -k RTR
h -t 1.106693377 -s 12 -d -1 -p DSR -e 68 -c 2 -a 0 -i 8 -k RTR
+ -t 1.107318365 -s 33 -d -1 -p DSR -e 68 -c 2 -a 0 -i 8 -k RTR 
- -t 1.107318365 -s 33 -d -1 -p DSR -e 68 -c 2 -a 0 -i 8 -k RTR
h -t 1.107318365 -s 33 -d -1 -p DSR -e 68 -c 2 -a 0 -i 8 -k RTR
+ -t 1.107557549 -s 28 -d -1 -p DSR -e 68 -c 2 -a 0 -i 8 -k RTR 
- -t 1.107557549 -s 28 -d -1 -p DSR -e 68 -c 2 -a 0 -i 8 -k RTR
h -t 1.107557549 -s 28 -d -1 -p DSR -e 68 -c 2 -a 0 -i 8 -k RTR
+ -t 1.107933717 -s 32 -d -1 -p DSR -e 68 -c 2 -a 0 -i 8 -k RTR 
- -t 1.107933717 -s 32 -d -1 -p DSR -e 68 -c 2 -a 0 -i 8 -k RTR
h -t 1.107933717 -s 32 -d -1 -p DSR -e 68 -c 2 -a 0 -i 8 -k RTR
+ -t 1.109038796 -s 8 -d -1 -p DSR -e 32 -c 2 -a 0 -i 18 -k RTR 
- -t 1.109038796 -s 8 -d -1 -p DSR -e 32 -c 2 -a 0 -i 18 -k RTR
h -t 1.109038796 -s 8 -d -1 -p DSR -e 32 -c 2 -a 0 -i 18 -k RTR
+ -t 1.109186652 -s 28 -d -1 -p tcp -e 40 -c 2 -a 0 -i 19 -k AGT 
- -t 1.109186652 -s 28 -d -1 -p tcp -e 40 -c 2 -a 0 -i 19 -k AGT
h -t 1.109186652 -s 28 -d -1 -p tcp -e 40 -c 2 -a 0 -i 19 -k AGT
+ -t 1.110017778 -s 39 -d 26 -p DSR -e 52 -c 2 -a 0 -i 17 -k RTR 
- -t 1.110017778 -s 39 -d 26 -p DSR -e 52 -c 2 -a 0 -i 17 -k RTR
h -t 1.110017778 -s 39 -d 26 -p DSR -e 52 -c 2 -a 0 -i 17 -k RTR
+ -t 1.113453174 -s 39 -d 38 -p DSR -e 60 -c 2 -a 0 -i 16 -k RTR 
- -t 1.113453174 -s 39 -d 38 -p DSR -e 60 -c 2 -a 0 -i 16 -k RTR
h -t 1.113453174 -s 39 -d 38 -p DSR -e 60 -c 2 -a 0 -i 16 -k RTR
+ -t 1.114513284 -s 28 -d -1 -p DSR -e 32 -c 2 -a 0 -i 20 -k RTR 
- -t 1.114513284 -s 28 -d -1 -p DSR -e 32 -c 2 -a 0 -i 20 -k RTR
h -t 1.114513284 -s 28 -d -1 -p DSR -e 32 -c 2 -a 0 -i 20 -k RTR
+ -t 1.114644483 -s 20 -d -1 -p DSR -e 48 -c 2 -a 0 -i 18 -k RTR 
- -t 1.114644483 -s 20 -d -1 -p DSR -e 48 -c 2 -a 0 -i 18 -k RTR
h -t 1.114644483 -s 20 -d -1 -p DSR -e 48 -c 2 -a 0 -i 18 -k RTR
+ -t 1.114735901 -s 13 -d -1 -p DSR -e 48 -c 2 -a 0 -i 18 -k RTR 
- -t 1.114735901 -s 13 -d -1 -p DSR -e 48 -c 2 -a 0 -i 18 -k RTR
h -t 1.114735901 -s 13 -d -1 -p DSR -e 48 -c 2 -a 0 -i 18 -k RTR
+ -t 1.116956117 -s 9 -d -1 -p DSR -e 48 -c 2 -a 0 -i 18 -k RTR 
- -t 1.116956117 -s 9 -d -1 -p DSR -e 48 -c 2 -a 0 -i 18 -k RTR
h -t 1.116956117 -s 9 -d -1 -p DSR -e 48 -c 2 -a 0 -i 18 -k RTR
+ -t 1.117033784 -s 25 -d -1 -p DSR -e 48 -c 2 -a 0 -i 18 -k RTR 
- -t 1.117033784 -s 25 -d -1 -p DSR -e 48 -c 2 -a 0 -i 18 -k RTR
h -t 1.117033784 -s 25 -d -1 -p DSR -e 48 -c 2 -a 0 -i 18 -k RTR
+ -t 1.118342125 -s 10 -d -1 -p DSR -e 48 -c 2 -a 0 -i 18 -k RTR 
- -t 1.118342125 -s 10 -d -1 -p DSR -e 48 -c 2 -a 0 -i 18 -k RTR
h -t 1.118342125 -s 10 -d -1 -p DSR -e 48 -c 2 -a 0 -i 18 -k RTR
+ -t 1.118369053 -s 28 -d -1 -p DSR -e 48 -c 2 -a 0 -i 18 -k RTR 
- -t 1.118369053 -s 28 -d -1 -p DSR -e 48 -c 2 -a 0 -i 18 -k RTR
h -t 1.118369053 -s 28 -d -1 -p DSR -e 48 -c 2 -a 0 -i 18 -k RTR
+ -t 1.118449711 -s 17 -d -1 -p DSR -e 48 -c 2 -a 0 -i 18 -k RTR 
- -t 1.118449711 -s 17 -d -1 -p DSR -e 48 -c 2 -a 0 -i 18 -k RTR
h -t 1.118449711 -s 17 -d -1 -p DSR -e 48 -c 2 -a 0 -i 18 -k RTR
+ -t 1.118714442 -s 1 -d -1 -p DSR -e 48 -c 2 -a 0 -i 18 -k RTR 
- -t 1.118714442 -s 1 -d -1 -p DSR -e 48 -c 2 -a 0 -i 18 -k RTR
h -t 1.118714442 -s 1 -d -1 -p DSR -e 48 -c 2 -a 0 -i 18 -k RTR
+ -t 1.118742855 -s 24 -d -1 -p DSR -e 48 -c 2 -a 0 -i 18 -k RTR 
- -t 1.118742855 -s 24 -d -1 -p DSR -e 48 -c 2 -a 0 -i 18 -k RTR
h -t 1.118742855 -s 24 -d -1 -p DSR -e 48 -c 2 -a 0 -i 18 -k RTR
+ -t 1.118744953 -s 21 -d -1 -p DSR -e 48 -c 2 -a 0 -i 18 -k RTR 
- -t 1.118744953 -s 21 -d -1 -p DSR -e 48 -c 2 -a 0 -i 18 -k RTR
h -t 1.118744953 -s 21 -d -1 -p DSR -e 48 -c 2 -a 0 -i 18 -k RTR
+ -t 1.119120442 -s 23 -d -1 -p tcp -e 40 -c 2 -a 0 -i 23 -k AGT 
- -t 1.119120442 -s 23 -d -1 -p tcp -e 40 -c 2 -a 0 -i 23 -k AGT
h -t 1.119120442 -s 23 -d -1 -p tcp -e 40 -c 2 -a 0 -i 23 -k AGT
+ -t 1.121775705 -s 4 -d -1 -p DSR -e 48 -c 2 -a 0 -i 18 -k RTR 
- -t 1.121775705 -s 4 -d -1 -p DSR -e 48 -c 2 -a 0 -i 18 -k RTR
h -t 1.121775705 -s 4 -d -1 -p DSR -e 48 -c 2 -a 0 -i 18 -k RTR
+ -t 1.121880723 -s 16 -d -1 -p DSR -e 48 -c 2 -a 0 -i 18 -k RTR 
- -t 1.121880723 -s 16 -d -1 -p DSR -e 48 -c 2 -a 0 -i 18 -k RTR
h -t 1.121880723 -s 16 -d -1 -p DSR -e 48 -c 2 -a 0 -i 18 -k RTR
+ -t 1.122146970 -s 5 -d -1 -p DSR -e 48 -c 2 -a 0 -i 18 -k RTR 
- -t 1.122146970 -s 5 -d -1 -p DSR -e 48 -c 2 -a 0 -i 18 -k RTR
h -t 1.122146970 -s 5 -d -1 -p DSR -e 48 -c 2 -a 0 -i 18 -k RTR
+ -t 1.122474426 -s 12 -d -1 -p DSR -e 48 -c 2 -a 0 -i 18 -k RTR 
- -t 1.122474426 -s 12 -d -1 -p DSR -e 48 -c 2 -a 0 -i 18 -k RTR
h -t 1.122474426 -s 12 -d -1 -p DSR -e 48 -c 2 -a 0 -i 18 -k RTR
+ -t 1.122589805 -s 39 -d 37 -p DSR -e 60 -c 2 -a 0 -i 22 -k RTR 
- -t 1.122589805 -s 39 -d 37 -p DSR -e 60 -c 2 -a 0 -i 22 -k RTR
h -t 1.122589805 -s 39 -d 37 -p DSR -e 60 -c 2 -a 0 -i 22 -k RTR
+ -t 1.122716180 -s 0 -d -1 -p DSR -e 48 -c 2 -a 0 -i 18 -k RTR 
- -t 1.122716180 -s 0 -d -1 -p DSR -e 48 -c 2 -a 0 -i 18 -k RTR
h -t 1.122716180 -s 0 -d -1 -p DSR -e 48 -c 2 -a 0 -i 18 -k RTR
+ -t 1.123314847 -s 39 -d 31 -p DSR -e 60 -c 2 -a 0 -i 26 -k RTR 
- -t 1.123314847 -s 39 -d 31 -p DSR -e 60 -c 2 -a 0 -i 26 -k RTR
h -t 1.123314847 -s 39 -d 31 -p DSR -e 60 -c 2 -a 0 -i 26 -k RTR
+ -t 1.124008794 -s 23 -d -1 -p DSR -e 32 -c 2 -a 0 -i 24 -k RTR 
- -t 1.124008794 -s 23 -d -1 -p DSR -e 32 -c 2 -a 0 -i 24 -k RTR
h -t 1.124008794 -s 23 -d -1 -p DSR -e 32 -c 2 -a 0 -i 24 -k RTR
+ -t 1.124264559 -s 39 -d 34 -p DSR -e 60 -c 2 -a 0 -i 27 -k RTR 
- -t 1.124264559 -s 39 -d 34 -p DSR -e 60 -c 2 -a 0 -i 27 -k RTR
h -t 1.124264559 -s 39 -d 34 -p DSR -e 60 -c 2 -a 0 -i 27 -k RTR
+ -t 1.124437543 -s 39 -d 30 -p DSR -e 52 -c 2 -a 0 -i 21 -k RTR 
- -t 1.124437543 -s 39 -d 30 -p DSR -e 52 -c 2 -a 0 -i 21 -k RTR
h -t 1.124437543 -s 39 -d 30 -p DSR -e 52 -c 2 -a 0 -i 21 -k RTR
+ -t 1.126033619 -s 1 -d -1 -p tcp -e 40 -c 2 -a 0 -i 29 -k AGT 
- -t 1.126033619 -s 1 -d -1 -p tcp -e 40 -c 2 -a 0 -i 29 -k AGT
h -t 1.126033619 -s 1 -d -1 -p tcp -e 40 -c 2 -a 0 -i 29 -k AGT
+ -t 1.129032209 -s 39 -d 35 -p DSR -e 60 -c 2 -a 0 -i 25 -k RTR 
- -t 1.129032209 -s 39 -d 35 -p DSR -e 60 -c 2 -a 0 -i 25 -k RTR
h -t 1.129032209 -s 39 -d 35 -p DSR -e 60 -c 2 -a 0 -i 25 -k RTR
+ -t 1.129134577 -s 33 -d -1 -p DSR -e 68 -c 2 -a 0 -i 18 -k RTR 
- -t 1.129134577 -s 33 -d -1 -p DSR -e 68 -c 2 -a 0 -i 18 -k RTR
h -t 1.129134577 -s 33 -d -1 -p DSR -e 68 -c 2 -a 0 -i 18 -k RTR
+ -t 1.129547252 -s 18 -d -1 -p DSR -e 68 -c 2 -a 0 -i 18 -k RTR 
- -t 1.129547252 -s 18 -d -1 -p DSR -e 68 -c 2 -a 0 -i 18 -k RTR
h -t 1.129547252 -s 18 -d -1 -p DSR -e 68 -c 2 -a 0 -i 18 -k RTR
+ -t 1.129901221 -s 6 -d -1 -p DSR -e 68 -c 2 -a 0 -i 18 -k RTR 
- -t 1.129901221 -s 6 -d -1 -p DSR -e 68 -c 2 -a 0 -i 18 -k RTR
h -t 1.129901221 -s 6 -d -1 -p DSR -e 68 -c 2 -a 0 -i 18 -k RTR
+ -t 1.130781242 -s 1 -d -1 -p DSR -e 32 -c 2 -a 0 -i 30 -k RTR 
- -t 1.130781242 -s 1 -d -1 -p DSR -e 32 -c 2 -a 0 -i 30 -k RTR
h -t 1.130781242 -s 1 -d -1 -p DSR -e 32 -c 2 -a 0 -i 30 -k RTR
+ -t 1.131016152 -s 32 -d -1 -p DSR -e 68 -c 2 -a 0 -i 18 -k RTR 
- -t 1.131016152 -s 32 -d -1 -p DSR -e 68 -c 2 -a 0 -i 18 -k RTR
h -t 1.131016152 -s 32 -d -1 -p DSR -e 68 -c 2 -a 0 -i 18 -k RTR
+ -t 1.131419837 -s 39 -d 19 -p DSR -e 52 -c 2 -a 0 -i 31 -k RTR 
- -t 1.131419837 -s 39 -d 19 -p DSR -e 52 -c 2 -a 0 -i 31 -k RTR
h -t 1.131419837 -s 39 -d 19 -p DSR -e 52 -c 2 -a 0 -i 31 -k RTR
+ -t 1.132538009 -s 34 -d -1 -p DSR -e 68 -c 2 -a 0 -i 18 -k RTR 
- -t 1.132538009 -s 34 -d -1 -p DSR -e 68 -c 2 -a 0 -i 18 -k RTR
h -t 1.132538009 -s 34 -d -1 -p DSR -e 68 -c 2 -a 0 -i 18 -k RTR
+ -t 1.132766525 -s 27 -d -1 -p DSR -e 92 -c 2 -a 0 -i 18 -k RTR 
- -t 1.132766525 -s 27 -d -1 -p DSR -e 92 -c 2 -a 0 -i 18 -k RTR
h -t 1.132766525 -s 27 -d -1 -p DSR -e 92 -c 2 -a 0 -i 18 -k RTR
+ -t 1.133599801 -s 19 -d -1 -p DSR -e 32 -c 2 -a 0 -i 28 -k RTR 
- -t 1.133599801 -s 19 -d -1 -p DSR -e 32 -c 2 -a 0 -i 28 -k RTR
h -t 1.133599801 -s 19 -d -1 -p DSR -e 32 -c 2 -a 0 -i 28 -k RTR
+ -t 1.134427860 -s 15 -d -1 -p DSR -e 92 -c 2 -a 0 -i 18 -k RTR 
- -t 1.134427860 -s 15 -d -1 -p DSR -e 92 -c 2 -a 0 -i 18 -k RTR
h -t 1.134427860 -s 15 -d -1 -p DSR -e 92 -c 2 -a 0 -i 18 -k RTR
+ -t 1.134551457 -s 37 -d -1 -p DSR -e 68 -c 2 -a 0 -i 18 -k RTR 
- -t 1.134551457 -s 37 -d -1 -p DSR -e 68 -c 2 -a 0 -i 18 -k RTR
h -t 1.134551457 -s 37 -d -1 -p DSR -e 68 -c 2 -a 0 -i 18 -k RTR
+ -t 1.134846404 -s 22 -d -1 -p DSR -e 68 -c 2 -a 0 -i 18 -k RTR 
- -t 1.134846404 -s 22 -d -1 -p DSR -e 68 -c 2 -a 0 -i 18 -k RTR
h -t 1.134846404 -s 22 -d -1 -p DSR -e 68 -c 2 -a 0 -i 18 -k RTR
+ -t 1.135751681 -s 31 -d -1 -p DSR -e 92 -c 2 -a 0 -i 18 -k RTR 
- -t 1.135751681 -s 31 -d -1 -p DSR -e 92 -c 2 -a 0 -i 18 -k RTR
h -t 1.135751681 -s 31 -d -1 -p DSR -e 92 -c 2 -a 0 -i 18 -k RTR
+ -t 1.135819629 -s 38 -d -1 -p DSR -e 68 -c 2 -a 0 -i 18 -k RTR 
- -t 1.135819629 -s 38 -d -1 -p DSR -e 68 -c 2 -a 0 -i 18 -k RTR
h -t 1.135819629 -s 38 -d -1 -p DSR -e 68 -c 2 -a 0 -i 18 -k RTR
+ -t 1.136365765 -s 19 -d -1 -p DSR -e 92 -c 2 -a 0 -i 18 -k RTR 
- -t 1.136365765 -s 19 -d -1 -p DSR -e 92 -c 2 -a 0 -i 18 -k RTR
h -t 1.136365765 -s 19 -d -1 -p DSR -e 92 -c 2 -a 0 -i 18 -k RTR
+ -t 1.136464756 -s 2 -d -1 -p DSR -e 68 -c 2 -a 0 -i 18 -k RTR 
- -t 1.136464756 -s 2 -d -1 -p DSR -e 68 -c 2 -a 0 -i 18 -k RTR
h -t 1.136464756 -s 2 -d -1 -p DSR -e 68 -c 2 -a 0 -i 18 -k RTR
+ -t 1.136497610 -s 29 -d -1 -p DSR -e 68 -c 2 -a 0 -i 18 -k RTR 
- -t 1.136497610 -s 29 -d -1 -p DSR -e 68 -c 2 -a 0 -i 18 -k RTR
h -t 1.136497610 -s 29 -d -1 -p DSR -e 68 -c 2 -a 0 -i 18 -k RTR
+ -t 1.136820758 -s 26 -d -1 -p DSR -e 68 -c 2 -a 0 -i 18 -k RTR 
- -t 1.136820758 -s 26 -d -1 -p DSR -e 68 -c 2 -a 0 -i 18 -k RTR
h -t 1.136820758 -s 26 -d -1 -p DSR -e 68 -c 2 -a 0 -i 18 -k RTR
+ -t 1.136841706 -s 35 -d -1 -p DSR -e 92 -c 2 -a 0 -i 18 -k RTR 
- -t 1.136841706 -s 35 -d -1 -p DSR -e 92 -c 2 -a 0 -i 18 -k RTR
h -t 1.136841706 -s 35 -d -1 -p DSR -e 92 -c 2 -a 0 -i 18 -k RTR
+ -t 1.136931858 -s 7 -d -1 -p DSR -e 92 -c 2 -a 0 -i 18 -k RTR 
- -t 1.136931858 -s 7 -d -1 -p DSR -e 92 -c 2 -a 0 -i 18 -k RTR
h -t 1.136931858 -s 7 -d -1 -p DSR -e 92 -c 2 -a 0 -i 18 -k RTR
+ -t 1.137464291 -s 3 -d -1 -p DSR -e 92 -c 2 -a 0 -i 18 -k RTR 
- -t 1.137464291 -s 3 -d -1 -p DSR -e 92 -c 2 -a 0 -i 18 -k RTR
h -t 1.137464291 -s 3 -d -1 -p DSR -e 92 -c 2 -a 0 -i 18 -k RTR
+ -t 1.137549636 -s 14 -d -1 -p DSR -e 68 -c 2 -a 0 -i 18 -k RTR 
- -t 1.137549636 -s 14 -d -1 -p DSR -e 68 -c 2 -a 0 -i 18 -k RTR
h -t 1.137549636 -s 14 -d -1 -p DSR -e 68 -c 2 -a 0 -i 18 -k RTR
+ -t 1.138044693 -s 23 -d 18 -p DSR -e 60 -c 2 -a 0 -i 32 -k RTR 
- -t 1.138044693 -s 23 -d 18 -p DSR -e 60 -c 2 -a 0 -i 32 -k RTR
h -t 1.138044693 -s 23 -d 18 -p DSR -e 60 -c 2 -a 0 -i 32 -k RTR
+ -t 1.138081918 -s 36 -d -1 -p DSR -e 68 -c 2 -a 0 -i 18 -k RTR 
- -t 1.138081918 -s 36 -d -1 -p DSR -e 68 -c 2 -a 0 -i 18 -k RTR
h -t 1.138081918 -s 36 -d -1 -p DSR -e 68 -c 2 -a 0 -i 18 -k RTR
+ -t 1.138112031 -s 30 -d -1 -p DSR -e 68 -c 2 -a 0 -i 18 -k RTR 
- -t 1.138112031 -s 30 -d -1 -p DSR -e 68 -c 2 -a 0 -i 18 -k RTR
h -t 1.138112031 -s 30 -d -1 -p DSR -e 68 -c 2 -a 0 -i 18 -k RTR
+ -t 1.138979701 -s 11 -d -1 -p DSR -e 92 -c 2 -a 0 -i 18 -k RTR 
- -t 1.138979701 -s 11 -d -1 -p DSR -e 92 -c 2 -a 0 -i 18 -k RTR
h -t 1.138979701 -s 11 -d -1 -p DSR -e 92 -c 2 -a 0 -i 18 -k RTR
+ -t 1.144904764 -s 39 -d 35 -p DSR -e 72 -c 2 -a 0 -i 40 -k RTR 
- -t 1.144904764 -s 39 -d 35 -p DSR -e 72 -c 2 -a 0 -i 40 -k RTR
h -t 1.144904764 -s 39 -d 35 -p DSR -e 72 -c 2 -a 0 -i 40 -k RTR
d -t 1.144904764 -s 39 -d 35 -p DSR -e 60 -c 2 -a 0 -i 25 -k IFQ
+ -t 1.147206840 -s 23 -d 21 -p DSR -e 52 -c 2 -a 0 -i 35 -k RTR 
- -t 1.147206840 -s 23 -d 21 -p DSR -e 52 -c 2 -a 0 -i 35 -k RTR
h -t 1.147206840 -s 23 -d 21 -p DSR -e 52 -c 2 -a 0 -i 35 -k RTR
+ -t 1.147606528 -s 23 -d 35 -p DSR -e 68 -c 2 -a 0 -i 41 -k RTR 
- -t 1.147606528 -s 23 -d 35 -p DSR -e 68 -c 2 -a 0 -i 41 -k RTR
h -t 1.147606528 -s 23 -d 35 -p DSR -e 68 -c 2 -a 0 -i 41 -k RTR
+ -t 1.147977448 -s 39 -d 27 -p DSR -e 52 -c 2 -a 0 -i 37 -k RTR 
- -t 1.147977448 -s 39 -d 27 -p DSR -e 52 -c 2 -a 0 -i 37 -k RTR
h -t 1.147977448 -s 39 -d 27 -p DSR -e 52 -c 2 -a 0 -i 37 -k RTR
+ -t 1.148784605 -s 23 -d 38 -p DSR -e 60 -c 2 -a 0 -i 42 -k RTR 
- -t 1.148784605 -s 23 -d 38 -p DSR -e 60 -c 2 -a 0 -i 42 -k RTR
h -t 1.148784605 -s 23 -d 38 -p DSR -e 60 -c 2 -a 0 -i 42 -k RTR
+ -t 1.149929818 -s 23 -d 34 -p DSR -e 60 -c 2 -a 0 -i 43 -k RTR 
- -t 1.149929818 -s 23 -d 34 -p DSR -e 60 -c 2 -a 0 -i 43 -k RTR
h -t 1.149929818 -s 23 -d 34 -p DSR -e 60 -c 2 -a 0 -i 43 -k RTR
+ -t 1.152346289 -s 35 -d -1 -p DSR -e 32 -c 2 -a 0 -i 38 -k RTR 
- -t 1.152346289 -s 35 -d -1 -p DSR -e 32 -c 2 -a 0 -i 38 -k RTR
h -t 1.152346289 -s 35 -d -1 -p DSR -e 32 -c 2 -a 0 -i 38 -k RTR
+ -t 1.153908967 -s 0 -d -1 -p DSR -e 32 -c 2 -a 0 -i 39 -k RTR 
- -t 1.153908967 -s 0 -d -1 -p DSR -e 32 -c 2 -a 0 -i 39 -k RTR
h -t 1.153908967 -s 0 -d -1 -p DSR -e 32 -c 2 -a 0 -i 39 -k RTR
+ -t 1.154688274 -s 23 -d 31 -p DSR -e 68 -c 2 -a 0 -i 46 -k RTR 
- -t 1.154688274 -s 23 -d 31 -p DSR -e 68 -c 2 -a 0 -i 46 -k RTR
h -t 1.154688274 -s 23 -d 31 -p DSR -e 68 -c 2 -a 0 -i 46 -k RTR
+ -t 1.155598509 -s 23 -d 19 -p DSR -e 52 -c 2 -a 0 -i 47 -k RTR 
- -t 1.155598509 -s 23 -d 19 -p DSR -e 52 -c 2 -a 0 -i 47 -k RTR
h -t 1.155598509 -s 23 -d 19 -p DSR -e 52 -c 2 -a 0 -i 47 -k RTR
+ -t 1.156144971 -s 10 -d -1 -p DSR -e 48 -c 2 -a 0 -i 28 -k RTR 
- -t 1.156144971 -s 10 -d -1 -p DSR -e 48 -c 2 -a 0 -i 28 -k RTR
h -t 1.156144971 -s 10 -d -1 -p DSR -e 48 -c 2 -a 0 -i 28 -k RTR
+ -t 1.156666187 -s 7 -d -1 -p DSR -e 48 -c 2 -a 0 -i 28 -k RTR 
- -t 1.156666187 -s 7 -d -1 -p DSR -e 48 -c 2 -a 0 -i 28 -k RTR
h -t 1.156666187 -s 7 -d -1 -p DSR -e 48 -c 2 -a 0 -i 28 -k RTR
+ -t 1.157188867 -s 15 -d -1 -p DSR -e 48 -c 2 -a 0 -i 28 -k RTR 
- -t 1.157188867 -s 15 -d -1 -p DSR -e 48 -c 2 -a 0 -i 28 -k RTR
h -t 1.157188867 -s 15 -d -1 -p DSR -e 48 -c 2 -a 0 -i 28 -k RTR
+ -t 1.157294966 -s 16 -d -1 -p DSR -e 48 -c 2 -a 0 -i 39 -k RTR 
- -t 1.157294966 -s 16 -d -1 -p DSR -e 48 -c 2 -a 0 -i 39 -k RTR
h -t 1.157294966 -s 16 -d -1 -p DSR -e 48 -c 2 -a 0 -i 39 -k RTR
+ -t 1.158673014 -s 23 -d -1 -p DSR -e 32 -c 2 -a 0 -i 45 -k RTR 
- -t 1.158673014 -s 23 -d -1 -p DSR -e 32 -c 2 -a 0 -i 45 -k RTR
h -t 1.158673014 -s 23 -d -1 -p DSR -e 32 -c 2 -a 0 -i 45 -k RTR
+ -t 1.159299440 -s 12 -d -1 -p DSR -e 48 -c 2 -a 0 -i 39 -k RTR 
- -t 1.159299440 -s 12 -d -1 -p DSR -e 48 -c 2 -a 0 -i 39 -k RTR
h -t 1.159299440 -s 12 -d -1 -p DSR -e 48 -c 2 -a 0 -i 39 -k RTR
+ -t 1.160625998 -s 11 -d -1 -p DSR -e 48 -c 2 -a 0 -i 28 -k RTR 
- -t 1.160625998 -s 11 -d -1 -p DSR -e 48 -c 2 -a 0 -i 28 -k RTR
h -t 1.160625998 -s 11 -d -1 -p DSR -e 48 -c 2 -a 0 -i 28 -k RTR
+ -t 1.160702725 -s 39 -d -1 -p DSR -e 48 -c 2 -a 0 -i 38 -k RTR 
- -t 1.160702725 -s 39 -d -1 -p DSR -e 48 -c 2 -a 0 -i 38 -k RTR
h -t 1.160702725 -s 39 -d -1 -p DSR -e 48 -c 2 -a 0 -i 38 -k RTR
+ -t 1.161213150 -s 3 -d -1 -p DSR -e 48 -c 2 -a 0 -i 28 -k RTR 
- -t 1.161213150 -s 3 -d -1 -p DSR -e 48 -c 2 -a 0 -i 28 -k RTR
h -t 1.161213150 -s 3 -d -1 -p DSR -e 48 -c 2 -a 0 -i 28 -k RTR
+ -t 1.162670337 -s 23 -d 26 -p DSR -e 60 -c 2 -a 0 -i 44 -k RTR 
- -t 1.162670337 -s 23 -d 26 -p DSR -e 60 -c 2 -a 0 -i 44 -k RTR
h -t 1.162670337 -s 23 -d 26 -p DSR -e 60 -c 2 -a 0 -i 44 -k RTR