V -t * -v 1.0a5 -a 0
A -t * -n 1 -p 0 -o 0x7fffffff -c 30 -a 1
A -t * -h 1 -m 1073741823 -s 0
n -t * -a 35 -s 35 -S UP -v circle -c black -i black
n -t * -a 17 -s 17 -S UP -v circle -c black -i black
n -t * -a 0 -s 0 -S UP -v circle -c black -i black
n -t * -a 36 -s 36 -S UP -v circle -c black -i black
n -t * -a 18 -s 18 -S UP -v circle -c black -i black
n -t * -a 1 -s 1 -S UP -v circle -c black -i black
n -t * -a 37 -s 37 -S UP -v circle -c black -i black
n -t * -a 20 -s 20 -S UP -v circle -c black -i black
n -t * -a 19 -s 19 -S UP -v circle -c black -i black
n -t * -a 2 -s 2 -S UP -v circle -c black -i black
n -t * -a 38 -s 38 -S UP -v circle -c black -i black
n -t * -a 21 -s 21 -S UP -v circle -c black -i black
n -t * -a 3 -s 3 -S UP -v circle -c black -i black
n -t * -a 39 -s 39 -S UP -v circle -c black -i black
n -t * -a 22 -s 22 -S UP -v circle -c black -i black
n -t * -a 4 -s 4 -S UP -v circle -c black -i black
n -t * -a 23 -s 23 -S UP -v circle -c black -i black
n -t * -a 5 -s 5 -S UP -v circle -c black -i black
n -t * -a 24 -s 24 -S UP -v circle -c black -i black
n -t * -a 6 -s 6 -S UP -v circle -c black -i black
n -t * -a 25 -s 25 -S UP -v circle -c black -i black
n -t * -a 7 -s 7 -S UP -v circle -c black -i black
n -t * -a 26 -s 26 -S UP -v circle -c black -i black
n -t * -a 8 -s 8 -S UP -v circle -c black -i black
n -t * -a 27 -s 27 -S UP -v circle -c black -i black
n -t * -a 9 -s 9 -S UP -v circle -c black -i black
n -t * -a 10 -s 10 -S UP -v circle -c black -i black
n -t * -a 28 -s 28 -S UP -v circle -c black -i black
n -t * -a 11 -s 11 -S UP -v circle -c black -i black
n -t * -a 30 -s 30 -S UP -v circle -c black -i black
n -t * -a 29 -s 29 -S UP -v circle -c black -i black
n -t * -a 12 -s 12 -S UP -v circle -c black -i black
n -t * -a 31 -s 31 -S UP -v circle -c black -i black
n -t * -a 13 -s 13 -S UP -v circle -c black -i black
n -t * -a 32 -s 32 -S UP -v circle -c black -i black
n -t * -a 14 -s 14 -S UP -v circle -c black -i black
n -t * -a 33 -s 33 -S UP -v circle -c black -i black
n -t * -a 15 -s 15 -S UP -v circle -c black -i black
n -t * -a 34 -s 34 -S UP -v circle -c black -i black
n -t * -a 16 -s 16 -S UP -v circle -c black -i black
l -t * -s 2 -d 0 -S UP -r 10000000 -D 0.002 -c black
l -t * -s 3 -d 0 -S UP -r 10000000 -D 0.002 -c black
l -t * -s 4 -d 0 -S UP -r 10000000 -D 0.002 -c black
l -t * -s 5 -d 0 -S UP -r 10000000 -D 0.002 -c black
l -t * -s 6 -d 0 -S UP -r 10000000 -D 0.002 -c black
l -t * -s 7 -d 0 -S UP -r 10000000 -D 0.002 -c black
l -t * -s 8 -d 0 -S UP -r 10000000 -D 0.002 -c black
l -t * -s 9 -d 0 -S UP -r 10000000 -D 0.002 -c black
l -t * -s 10 -d 0 -S UP -r 10000000 -D 0.002 -c black
l -t * -s 11 -d 0 -S UP -r 10000000 -D 0.002 -c black
l -t * -s 12 -d 0 -S UP -r 10000000 -D 0.002 -c black
l -t * -s 13 -d 0 -S UP -r 10000000 -D 0.002 -c black
l -t * -s 14 -d 0 -S UP -r 10000000 -D 0.002 -c black
l -t * -s 15 -d 0 -S UP -r 10000000 -D 0.002 -c black
l -t * -s 16 -d 0 -S UP -r 10000000 -D 0.002 -c black
l -t * -s 17 -d 0 -S UP -r 10000000 -D 0.002 -c black
l -t * -s 18 -d 0 -S UP -r 10000000 -D 0.002 -c black
l -t * -s 19 -d 0 -S UP -r 10000000 -D 0.002 -c black
l -t * -s 20 -d 0 -S UP -r 10000000 -D 0.002 -c black
l -t * -s 21 -d 1 -S UP -r 10000000 -D 0.002 -c black
l -t * -s 22 -d 1 -S UP -r 10000000 -D 0.002 -c black
l -t * -s 23 -d 1 -S UP -r 10000000 -D 0.002 -c black
l -t * -s 24 -d 1 -S UP -r 10000000 -D 0.002 -c black
l -t * -s 25 -d 1 -S UP -r 10000000 -D 0.002 -c black
l -t * -s 26 -d 1 -S UP -r 10000000 -D 0.002 -c black
l -t * -s 27 -d 1 -S UP -r 10000000 -D 0.002 -c black
l -t * -s 28 -d 1 -S UP -r 10000000 -D 0.002 -c black
l -t * -s 29 -d 1 -S UP -r 10000000 -D 0.002 -c black
l -t * -s 30 -d 1 -S UP -r 10000000 -D 0.002 -c black
l -t * -s 31 -d 1 -S UP -r 10000000 -D 0.002 -c black
l -t * -s 32 -d 1 -S UP -r 10000000 -D 0.002 -c black
l -t * -s 33 -d 1 -S UP -r 10000000 -D 0.002 -c black
l -t * -s 34 -d 1 -S UP -r 10000000 -D 0.002 -c black
l -t * -s 35 -d 1 -S UP -r 10000000 -D 0.002 -c black
l -t * -s 36 -d 1 -S UP -r 10000000 -D 0.002 -c black
l -t * -s 37 -d 1 -S UP -r 10000000 -D 0.002 -c black
l -t * -s 38 -d 1 -S UP -r 10000000 -D 0.002 -c black
l -t * -s 39 -d 1 -S UP -r 10000000 -D 0.002 -c black
l -t * -s 0 -d 1 -S UP -r 1500000 -D 0.02 -c black -o right
q -t * -s 0 -d 1 -a 0
q -t * -s 1 -d 0 -a 0
+ -t 0.5 -s 17 -d 0 -p tcp -e 40 -c 0 -i 0 -a 0 -x {17.0 32.0 0 ------- null}
- -t 0.5 -s 17 -d 0 -p tcp -e 40 -c 0 -i 0 -a 0 -x {17.0 32.0 0 ------- null}
h -t 0.5 -s 17 -d 0 -p tcp -e 40 -c 0 -i 0 -a 0 -x {17.0 32.0 -1 ------- null}
+ -t 0.5 -s 15 -d 0 -p tcp -e 40 -c 1 -i 1 -a 1 -x {15.0 34.0 0 ------- null}
- -t 0.5 -s 15 -d 0 -p tcp -e 40 -c 1 -i 1 -a 1 -x {15.0 34.0 0 ------- null}
h -t 0.5 -s 15 -d 0 -p tcp -e 40 -c 1 -i 1 -a 1 -x {15.0 34.0 -1 ------- null}
+ -t 0.5 -s 14 -d 0 -p tcp -e 40 -c 2 -i 2 -a 2 -x {14.0 23.0 0 ------- null}
- -t 0.5 -s 14 -d 0 -p tcp -e 40 -c 2 -i 2 -a 2 -x {14.0 23.0 0 ------- null}
h -t 0.5 -s 14 -d 0 -p tcp -e 40 -c 2 -i 2 -a 2 -x {14.0 23.0 -1 ------- null}
+ -t 0.5 -s 11 -d 0 -p tcp -e 40 -c 3 -i 3 -a 3 -x {11.0 30.0 0 ------- null}
- -t 0.5 -s 11 -d 0 -p tcp -e 40 -c 3 -i 3 -a 3 -x {11.0 30.0 0 ------- null}
h -t 0.5 -s 11 -d 0 -p tcp -e 40 -c 3 -i 3 -a 3 -x {11.0 30.0 -1 ------- null}
+ -t 0.5 -s 13 -d 0 -p tcp -e 40 -c 4 -i 4 -a 4 -x {13.0 34.1 0 ------- null}
- -t 0.5 -s 13 -d 0 -p tcp -e 40 -c 4 -i 4 -a 4 -x {13.0 34.1 0 ------- null}
h -t 0.5 -s 13 -d 0 -p tcp -e 40 -c 4 -i 4 -a 4 -x {13.0 34.1 -1 ------- null}
+ -t 0.5 -s 17 -d 0 -p tcp -e 40 -c 5 -i 5 -a 5 -x {17.1 33.0 0 ------- null}
+ -t 0.5 -s 8 -d 0 -p tcp -e 40 -c 6 -i 6 -a 6 -x {8.0 32.1 0 ------- null}
- -t 0.5 -s 8 -d 0 -p tcp -e 40 -c 6 -i 6 -a 6 -x {8.0 32.1 0 ------- null}
h -t 0.5 -s 8 -d 0 -p tcp -e 40 -c 6 -i 6 -a 6 -x {8.0 32.1 -1 ------- null}
+ -t 0.5 -s 11 -d 0 -p tcp -e 40 -c 7 -i 7 -a 7 -x {11.1 39.0 0 ------- null}
+ -t 0.5 -s 11 -d 0 -p tcp -e 40 -c 8 -i 8 -a 8 -x {11.2 34.2 0 ------- null}
+ -t 0.5 -s 11 -d 0 -p tcp -e 40 -c 9 -i 9 -a 9 -x {11.3 39.1 0 ------- null}
+ -t 0.5 -s 2 -d 0 -p tcp -e 40 -c 10 -i 10 -a 10 -x {2.0 29.0 0 ------- null}
- -t 0.5 -s 2 -d 0 -p tcp -e 40 -c 10 -i 10 -a 10 -x {2.0 29.0 0 ------- null}
h -t 0.5 -s 2 -d 0 -p tcp -e 40 -c 10 -i 10 -a 10 -x {2.0 29.0 -1 ------- null}
+ -t 0.5 -s 8 -d 0 -p tcp -e 40 -c 11 -i 11 -a 11 -x {8.1 34.3 0 ------- null}
+ -t 0.5 -s 7 -d 0 -p tcp -e 40 -c 12 -i 12 -a 12 -x {7.0 24.0 0 ------- null}
- -t 0.5 -s 7 -d 0 -p tcp -e 40 -c 12 -i 12 -a 12 -x {7.0 24.0 0 ------- null}
h -t 0.5 -s 7 -d 0 -p tcp -e 40 -c 12 -i 12 -a 12 -x {7.0 24.0 -1 ------- null}
+ -t 0.5 -s 17 -d 0 -p tcp -e 40 -c 13 -i 13 -a 13 -x {17.2 37.0 0 ------- null}
+ -t 0.5 -s 20 -d 0 -p tcp -e 40 -c 14 -i 14 -a 14 -x {20.0 39.2 0 ------- null}
- -t 0.5 -s 20 -d 0 -p tcp -e 40 -c 14 -i 14 -a 14 -x {20.0 39.2 0 ------- null}
h -t 0.5 -s 20 -d 0 -p tcp -e 40 -c 14 -i 14 -a 14 -x {20.0 39.2 -1 ------- null}
+ -t 0.5 -s 3 -d 0 -p tcp -e 40 -c 15 -i 15 -a 15 -x {3.0 32.2 0 ------- null}
- -t 0.5 -s 3 -d 0 -p tcp -e 40 -c 15 -i 15 -a 15 -x {3.0 32.2 0 ------- null}
h -t 0.5 -s 3 -d 0 -p tcp -e 40 -c 15 -i 15 -a 15 -x {3.0 32.2 -1 ------- null}
+ -t 0.5 -s 5 -d 0 -p tcp -e 40 -c 16 -i 16 -a 16 -x {5.0 27.0 0 ------- null}
- -t 0.5 -s 5 -d 0 -p tcp -e 40 -c 16 -i 16 -a 16 -x {5.0 27.0 0 ------- null}
h -t 0.5 -s 5 -d 0 -p tcp -e 40 -c 16 -i 16 -a 16 -x {5.0 27.0 -1 ------- null}
+ -t 0.5 -s 20 -d 0 -p tcp -e 40 -c 17 -i 17 -a 17 -x {20.1 28.0 0 ------- null}
+ -t 0.5 -s 14 -d 0 -p tcp -e 40 -c 18 -i 18 -a 18 -x {14.1 28.1 0 ------- null}
+ -t 0.5 -s 11 -d 0 -p tcp -e 40 -c 19 -i 19 -a 19 -x {11.4 31.0 0 ------- null}
- -t 0.500032 -s 17 -d 0 -p tcp -e 40 -c 5 -i 5 -a 5 -x {17.1 33.0 0 ------- null}
h -t 0.500032 -s 17 -d 0 -p tcp -e 40 -c 5 -i 5 -a 5 -x {17.1 33.0 -1 ------- null}
- -t 0.500032 -s 14 -d 0 -p tcp -e 40 -c 18 -i 18 -a 18 -x {14.1 28.1 0 ------- null}
h -t 0.500032 -s 14 -d 0 -p tcp -e 40 -c 18 -i 18 -a 18 -x {14.1 28.1 -1 ------- null}
- -t 0.500032 -s 11 -d 0 -p tcp -e 40 -c 7 -i 7 -a 7 -x {11.1 39.0 0 ------- null}
h -t 0.500032 -s 11 -d 0 -p tcp -e 40 -c 7 -i 7 -a 7 -x {11.1 39.0 -1 ------- null}
- -t 0.500032 -s 8 -d 0 -p tcp -e 40 -c 11 -i 11 -a 11 -x {8.1 34.3 0 ------- null}
h -t 0.500032 -s 8 -d 0 -p tcp -e 40 -c 11 -i 11 -a 11 -x {8.1 34.3 -1 ------- null}
- -t 0.500032 -s 20 -d 0 -p tcp -e 40 -c 17 -i 17 -a 17 -x {20.1 28.0 0 ------- null}
h -t 0.500032 -s 20 -d 0 -p tcp -e 40 -c 17 -i 17 -a 17 -x {20.1 28.0 -1 ------- null}
- -t 0.500064 -s 17 -d 0 -p tcp -e 40 -c 13 -i 13 -a 13 -x {17.2 37.0 0 ------- null}
h -t 0.500064 -s 17 -d 0 -p tcp -e 40 -c 13 -i 13 -a 13 -x {17.2 37.0 -1 ------- null}
- -t 0.500064 -s 11 -d 0 -p tcp -e 40 -c 8 -i 8 -a 8 -x {11.2 34.2 0 ------- null}
h -t 0.500064 -s 11 -d 0 -p tcp -e 40 -c 8 -i 8 -a 8 -x {11.2 34.2 -1 ------- null}
- -t 0.500096 -s 11 -d 0 -p tcp -e 40 -c 9 -i 9 -a 9 -x {11.3 39.1 0 ------- null}
h -t 0.500096 -s 11 -d 0 -p tcp -e 40 -c 9 -i 9 -a 9 -x {11.3 39.1 -1 ------- null}
- -t 0.500128 -s 11 -d 0 -p tcp -e 40 -c 19 -i 19 -a 19 -x {11.4 31.0 0 ------- null}
h -t 0.500128 -s 11 -d 0 -p tcp -e 40 -c 19 -i 19 -a 19 -x {11.4 31.0 -1 ------- null}
r -t 0.502032 -s 17 -d 0 -p tcp -e 40 -c 0 -i 0 -a 0 -x {17.0 32.0 0 ------- null}
+ -t 0.502032 -s 0 -d 1 -p tcp -e 40 -c 0 -i 0 -a 0 -x {17.0 32.0 0 ------- null}
- -t 0.502032 -s 0 -d 1 -p tcp -e 40 -c 0 -i 0 -a 0 -x {17.0 32.0 0 ------- null}
h -t 0.502032 -s 0 -d 1 -p tcp -e 40 -c 0 -i 0 -a 0 -x {17.0 32.0 -1 ------- null}
r -t 0.502032 -s 15 -d 0 -p tcp -e 40 -c 1 -i 1 -a 1 -x {15.0 34.0 0 ------- null}
+ -t 0.502032 -s 0 -d 1 -p tcp -e 40 -c 1 -i 1 -a 1 -x {15.0 34.0 0 ------- null}
r -t 0.502032 -s 14 -d 0 -p tcp -e 40 -c 2 -i 2 -a 2 -x {14.0 23.0 0 ------- null}
+ -t 0.502032 -s 0 -d 1 -p tcp -e 40 -c 2 -i 2 -a 2 -x {14.0 23.0 0 ------- null}
r -t 0.502032 -s 11 -d 0 -p tcp -e 40 -c 3 -i 3 -a 3 -x {11.0 30.0 0 ------- null}
+ -t 0.502032 -s 0 -d 1 -p tcp -e 40 -c 3 -i 3 -a 3 -x {11.0 30.0 0 ------- null}
r -t 0.502032 -s 13 -d 0 -p tcp -e 40 -c 4 -i 4 -a 4 -x {13.0 34.1 0 ------- null}
+ -t 0.502032 -s 0 -d 1 -p tcp -e 40 -c 4 -i 4 -a 4 -x {13.0 34.1 0 ------- null}
r -t 0.502032 -s 8 -d 0 -p tcp -e 40 -c 6 -i 6 -a 6 -x {8.0 32.1 0 ------- null}
+ -t 0.502032 -s 0 -d 1 -p tcp -e 40 -c 6 -i 6 -a 6 -x {8.0 32.1 0 ------- null}
r -t 0.502032 -s 2 -d 0 -p tcp -e 40 -c 10 -i 10 -a 10 -x {2.0 29.0 0 ------- null}
+ -t 0.502032 -s 0 -d 1 -p tcp -e 40 -c 10 -i 10 -a 10 -x {2.0 29.0 0 ------- null}
r -t 0.502032 -s 7 -d 0 -p tcp -e 40 -c 12 -i 12 -a 12 -x {7.0 24.0 0 ------- null}
+ -t 0.502032 -s 0 -d 1 -p tcp -e 40 -c 12 -i 12 -a 12 -x {7.0 24.0 0 ------- null}
r -t 0.502032 -s 20 -d 0 -p tcp -e 40 -c 14 -i 14 -a 14 -x {20.0 39.2 0 ------- null}
+ -t 0.502032 -s 0 -d 1 -p tcp -e 40 -c 14 -i 14 -a 14 -x {20.0 39.2 0 ------- null}
r -t 0.502032 -s 3 -d 0 -p tcp -e 40 -c 15 -i 15 -a 15 -x {3.0 32.2 0 ------- null}
+ -t 0.502032 -s 0 -d 1 -p tcp -e 40 -c 15 -i 15 -a 15 -x {3.0 32.2 0 ------- null}
r -t 0.502032 -s 5 -d 0 -p tcp -e 40 -c 16 -i 16 -a 16 -x {5.0 27.0 0 ------- null}
+ -t 0.502032 -s 0 -d 1 -p tcp -e 40 -c 16 -i 16 -a 16 -x {5.0 27.0 0 ------- null}
r -t 0.502064 -s 17 -d 0 -p tcp -e 40 -c 5 -i 5 -a 5 -x {17.1 33.0 0 ------- null}
+ -t 0.502064 -s 0 -d 1 -p tcp -e 40 -c 5 -i 5 -a 5 -x {17.1 33.0 0 ------- null}
r -t 0.502064 -s 14 -d 0 -p tcp -e 40 -c 18 -i 18 -a 18 -x {14.1 28.1 0 ------- null}
+ -t 0.502064 -s 0 -d 1 -p tcp -e 40 -c 18 -i 18 -a 18 -x {14.1 28.1 0 ------- null}
r -t 0.502064 -s 11 -d 0 -p tcp -e 40 -c 7 -i 7 -a 7 -x {11.1 39.0 0 ------- null}
+ -t 0.502064 -s 0 -d 1 -p tcp -e 40 -c 7 -i 7 -a 7 -x {11.1 39.0 0 ------- null}
r -t 0.502064 -s 8 -d 0 -p tcp -e 40 -c 11 -i 11 -a 11 -x {8.1 34.3 0 ------- null}
+ -t 0.502064 -s 0 -d 1 -p tcp -e 40 -c 11 -i 11 -a 11 -x {8.1 34.3 0 ------- null}
r -t 0.502064 -s 20 -d 0 -p tcp -e 40 -c 17 -i 17 -a 17 -x {20.1 28.0 0 ------- null}
+ -t 0.502064 -s 0 -d 1 -p tcp -e 40 -c 17 -i 17 -a 17 -x {20.1 28.0 0 ------- null}
r -t 0.502096 -s 17 -d 0 -p tcp -e 40 -c 13 -i 13 -a 13 -x {17.2 37.0 0 ------- null}
+ -t 0.502096 -s 0 -d 1 -p tcp -e 40 -c 13 -i 13 -a 13 -x {17.2 37.0 0 ------- null}
r -t 0.502096 -s 11 -d 0 -p tcp -e 40 -c 8 -i 8 -a 8 -x {11.2 34.2 0 ------- null}
+ -t 0.502096 -s 0 -d 1 -p tcp -e 40 -c 8 -i 8 -a 8 -x {11.2 34.2 0 ------- null}
r -t 0.502128 -s 11 -d 0 -p tcp -e 40 -c 9 -i 9 -a 9 -x {11.3 39.1 0 ------- null}
+ -t 0.502128 -s 0 -d 1 -p tcp -e 40 -c 9 -i 9 -a 9 -x {11.3 39.1 0 ------- null}
r -t 0.50216 -s 11 -d 0 -p tcp -e 40 -c 19 -i 19 -a 19 -x {11.4 31.0 0 ------- null}
+ -t 0.50216 -s 0 -d 1 -p tcp -e 40 -c 19 -i 19 -a 19 -x {11.4 31.0 0 ------- null}
- -t 0.502245333333333 -s 0 -d 1 -p tcp -e 40 -c 1 -i 1 -a 1 -x {15.0 34.0 0 ------- null}
h -t 0.502245333333333 -s 0 -d 1 -p tcp -e 40 -c 1 -i 1 -a 1 -x {15.0 34.0 -1 ------- null}
- -t 0.502458666666667 -s 0 -d 1 -p tcp -e 40 -c 2 -i 2 -a 2 -x {14.0 23.0 0 ------- null}
h -t 0.502458666666667 -s 0 -d 1 -p tcp -e 40 -c 2 -i 2 -a 2 -x {14.0 23.0 -1 ------- null}
- -t 0.502672 -s 0 -d 1 -p tcp -e 40 -c 3 -i 3 -a 3 -x {11.0 30.0 0 ------- null}
h -t 0.502672 -s 0 -d 1 -p tcp -e 40 -c 3 -i 3 -a 3 -x {11.0 30.0 -1 ------- null}
- -t 0.502885333333333 -s 0 -d 1 -p tcp -e 40 -c 4 -i 4 -a 4 -x {13.0 34.1 0 ------- null}
h -t 0.502885333333333 -s 0 -d 1 -p tcp -e 40 -c 4 -i 4 -a 4 -x {13.0 34.1 -1 ------- null}
- -t 0.503098666666666 -s 0 -d 1 -p tcp -e 40 -c 6 -i 6 -a 6 -x {8.0 32.1 0 ------- null}
h -t 0.503098666666666 -s 0 -d 1 -p tcp -e 40 -c 6 -i 6 -a 6 -x {8.0 32.1 -1 ------- null}
- -t 0.503312 -s 0 -d 1 -p tcp -e 40 -c 10 -i 10 -a 10 -x {2.0 29.0 0 ------- null}
h -t 0.503312 -s 0 -d 1 -p tcp -e 40 -c 10 -i 10 -a 10 -x {2.0 29.0 -1 ------- null}
- -t 0.503525333333333 -s 0 -d 1 -p tcp -e 40 -c 12 -i 12 -a 12 -x {7.0 24.0 0 ------- null}
h -t 0.503525333333333 -s 0 -d 1 -p tcp -e 40 -c 12 -i 12 -a 12 -x {7.0 24.0 -1 ------- null}
- -t 0.503738666666666 -s 0 -d 1 -p tcp -e 40 -c 14 -i 14 -a 14 -x {20.0 39.2 0 ------- null}
h -t 0.503738666666666 -s 0 -d 1 -p tcp -e 40 -c 14 -i 14 -a 14 -x {20.0 39.2 -1 ------- null}
- -t 0.503952 -s 0 -d 1 -p tcp -e 40 -c 15 -i 15 -a 15 -x {3.0 32.2 0 ------- null}
h -t 0.503952 -s 0 -d 1 -p tcp -e 40 -c 15 -i 15 -a 15 -x {3.0 32.2 -1 ------- null}
- -t 0.504165333333333 -s 0 -d 1 -p tcp -e 40 -c 16 -i 16 -a 16 -x {5.0 27.0 0 ------- null}
h -t 0.504165333333333 -s 0 -d 1 -p tcp -e 40 -c 16 -i 16 -a 16 -x {5.0 27.0 -1 ------- null}
- -t 0.504378666666666 -s 0 -d 1 -p tcp -e 40 -c 5 -i 5 -a 5 -x {17.1 33.0 0 ------- null}
h -t 0.504378666666666 -s 0 -d 1 -p tcp -e 40 -c 5 -i 5 -a 5 -x {17.1 33.0 -1 ------- null}
- -t 0.504591999999999 -s 0 -d 1 -p tcp -e 40 -c 18 -i 18 -a 18 -x {14.1 28.1 0 ------- null}
h -t 0.504591999999999 -s 0 -d 1 -p tcp -e 40 -c 18 -i 18 -a 18 -x {14.1 28.1 -1 ------- null}
- -t 0.504805333333333 -s 0 -d 1 -p tcp -e 40 -c 7 -i 7 -a 7 -x {11.1 39.0 0 ------- null}
h -t 0.504805333333333 -s 0 -d 1 -p tcp -e 40 -c 7 -i 7 -a 7 -x {11.1 39.0 -1 ------- null}
- -t 0.505018666666666 -s 0 -d 1 -p tcp -e 40 -c 11 -i 11 -a 11 -x {8.1 34.3 0 ------- null}
h -t 0.505018666666666 -s 0 -d 1 -p tcp -e 40 -c 11 -i 11 -a 11 -x {8.1 34.3 -1 ------- null}
- -t 0.505231999999999 -s 0 -d 1 -p tcp -e 40 -c 17 -i 17 -a 17 -x {20.1 28.0 0 ------- null}
h -t 0.505231999999999 -s 0 -d 1 -p tcp -e 40 -c 17 -i 17 -a 17 -x {20.1 28.0 -1 ------- null}
- -t 0.505445333333333 -s 0 -d 1 -p tcp -e 40 -c 13 -i 13 -a 13 -x {17.2 37.0 0 ------- null}
h -t 0.505445333333333 -s 0 -d 1 -p tcp -e 40 -c 13 -i 13 -a 13 -x {17.2 37.0 -1 ------- null}
- -t 0.505658666666666 -s 0 -d 1 -p tcp -e 40 -c 8 -i 8 -a 8 -x {11.2 34.2 0 ------- null}
h -t 0.505658666666666 -s 0 -d 1 -p tcp -e 40 -c 8 -i 8 -a 8 -x {11.2 34.2 -1 ------- null}
- -t 0.505871999999999 -s 0 -d 1 -p tcp -e 40 -c 9 -i 9 -a 9 -x {11.3 39.1 0 ------- null}
h -t 0.505871999999999 -s 0 -d 1 -p tcp -e 40 -c 9 -i 9 -a 9 -x {11.3 39.1 -1 ------- null}
- -t 0.506085333333332 -s 0 -d 1 -p tcp -e 40 -c 19 -i 19 -a 19 -x {11.4 31.0 0 ------- null}
h -t 0.506085333333332 -s 0 -d 1 -p tcp -e 40 -c 19 -i 19 -a 19 -x {11.4 31.0 -1 ------- null}
r -t 0.522245333333333 -s 0 -d 1 -p tcp -e 40 -c 0 -i 0 -a 0 -x {17.0 32.0 0 ------- null}
+ -t 0.522245333333333 -s 1 -d 32 -p tcp -e 40 -c 0 -i 0 -a 0 -x {17.0 32.0 0 ------- null}
- -t 0.522245333333333 -s 1 -d 32 -p tcp -e 40 -c 0 -i 0 -a 0 -x {17.0 32.0 0 ------- null}
h -t 0.522245333333333 -s 1 -d 32 -p tcp -e 40 -c 0 -i 0 -a 0 -x {17.0 32.0 -1 ------- null}
r -t 0.522458666666667 -s 0 -d 1 -p tcp -e 40 -c 1 -i 1 -a 1 -x {15.0 34.0 0 ------- null}
+ -t 0.522458666666667 -s 1 -d 34 -p tcp -e 40 -c 1 -i 1 -a 1 -x {15.0 34.0 0 ------- null}
- -t 0.522458666666667 -s 1 -d 34 -p tcp -e 40 -c 1 -i 1 -a 1 -x {15.0 34.0 0 ------- null}
h -t 0.522458666666667 -s 1 -d 34 -p tcp -e 40 -c 1 -i 1 -a 1 -x {15.0 34.0 -1 ------- null}
r -t 0.522672 -s 0 -d 1 -p tcp -e 40 -c 2 -i 2 -a 2 -x {14.0 23.0 0 ------- null}
+ -t 0.522672 -s 1 -d 23 -p tcp -e 40 -c 2 -i 2 -a 2 -x {14.0 23.0 0 ------- null}
- -t 0.522672 -s 1 -d 23 -p tcp -e 40 -c 2 -i 2 -a 2 -x {14.0 23.0 0 ------- null}
h -t 0.522672 -s 1 -d 23 -p tcp -e 40 -c 2 -i 2 -a 2 -x {14.0 23.0 -1 ------- null}
r -t 0.522885333333333 -s 0 -d 1 -p tcp -e 40 -c 3 -i 3 -a 3 -x {11.0 30.0 0 ------- null}
+ -t 0.522885333333333 -s 1 -d 30 -p tcp -e 40 -c 3 -i 3 -a 3 -x {11.0 30.0 0 ------- null}
- -t 0.522885333333333 -s 1 -d 30 -p tcp -e 40 -c 3 -i 3 -a 3 -x {11.0 30.0 0 ------- null}
h -t 0.522885333333333 -s 1 -d 30 -p tcp -e 40 -c 3 -i 3 -a 3 -x {11.0 30.0 -1 ------- null}
r -t 0.523098666666666 -s 0 -d 1 -p tcp -e 40 -c 4 -i 4 -a 4 -x {13.0 34.1 0 ------- null}
+ -t 0.523098666666666 -s 1 -d 34 -p tcp -e 40 -c 4 -i 4 -a 4 -x {13.0 34.1 0 ------- null}
- -t 0.523098666666666 -s 1 -d 34 -p tcp -e 40 -c 4 -i 4 -a 4 -x {13.0 34.1 0 ------- null}
h -t 0.523098666666666 -s 1 -d 34 -p tcp -e 40 -c 4 -i 4 -a 4 -x {13.0 34.1 -1 ------- null}
r -t 0.523312 -s 0 -d 1 -p tcp -e 40 -c 6 -i 6 -a 6 -x {8.0 32.1 0 ------- null}
+ -t 0.523312 -s 1 -d 32 -p tcp -e 40 -c 6 -i 6 -a 6 -x {8.0 32.1 0 ------- null}
- -t 0.523312 -s 1 -d 32 -p tcp -e 40 -c 6 -i 6 -a 6 -x {8.0 32.1 0 ------- null}
h -t 0.523312 -s 1 -d 32 -p tcp -e 40 -c 6 -i 6 -a 6 -x {8.0 32.1 -1 ------- null}
r -t 0.523525333333333 -s 0 -d 1 -p tcp -e 40 -c 10 -i 10 -a 10 -x {2.0 29.0 0 ------- null}
+ -t 0.523525333333333 -s 1 -d 29 -p tcp -e 40 -c 10 -i 10 -a 10 -x {2.0 29.0 0 ------- null}
- -t 0.523525333333333 -s 1 -d 29 -p tcp -e 40 -c 10 -i 10 -a 10 -x {2.0 29.0 0 ------- null}
h -t 0.523525333333333 -s 1 -d 29 -p tcp -e 40 -c 10 -i 10 -a 10 -x {2.0 29.0 -1 ------- null}
r -t 0.523738666666666 -s 0 -d 1 -p tcp -e 40 -c 12 -i 12 -a 12 -x {7.0 24.0 0 ------- null}
+ -t 0.523738666666666 -s 1 -d 24 -p tcp -e 40 -c 12 -i 12 -a 12 -x {7.0 24.0 0 ------- null}
- -t 0.523738666666666 -s 1 -d 24 -p tcp -e 40 -c 12 -i 12 -a 12 -x {7.0 24.0 0 ------- null}
h -t 0.523738666666666 -s 1 -d 24 -p tcp -e 40 -c 12 -i 12 -a 12 -x {7.0 24.0 -1 ------- null}
r -t 0.523952 -s 0 -d 1 -p tcp -e 40 -c 14 -i 14 -a 14 -x {20.0 39.2 0 ------- null}
+ -t 0.523952 -s 1 -d 39 -p tcp -e 40 -c 14 -i 14 -a 14 -x {20.0 39.2 0 ------- null}
- -t 0.523952 -s 1 -d 39 -p tcp -e 40 -c 14 -i 14 -a 14 -x {20.0 39.2 0 ------- null}
h -t 0.523952 -s 1 -d 39 -p tcp -e 40 -c 14 -i 14 -a 14 -x {20.0 39.2 -1 ------- null}
r -t 0.524165333333333 -s 0 -d 1 -p tcp -e 40 -c 15 -i 15 -a 15 -x {3.0 32.2 0 ------- null}
+ -t 0.524165333333333 -s 1 -d 32 -p tcp -e 40 -c 15 -i 15 -a 15 -x {3.0 32.2 0 ------- null}
- -t 0.524165333333333 -s 1 -d 32 -p tcp -e 40 -c 15 -i 15 -a 15 -x {3.0 32.2 0 ------- null}
h -t 0.524165333333333 -s 1 -d 32 -p tcp -e 40 -c 15 -i 15 -a 15 -x {3.0 32.2 -1 ------- null}
r -t 0.524277333333333 -s 1 -d 32 -p tcp -e 40 -c 0 -i 0 -a 0 -x {17.0 32.0 0 ------- null}
+ -t 0.524277333333333 -s 32 -d 1 -p ack -e 40 -c 0 -i 20 -a 0 -x {32.0 17.0 0 ------- null}
- -t 0.524277333333333 -s 32 -d 1 -p ack -e 40 -c 0 -i 20 -a 0 -x {32.0 17.0 0 ------- null}
h -t 0.524277333333333 -s 32 -d 1 -p ack -e 40 -c 0 -i 20 -a 0 -x {32.0 17.0 -1 ------- null}
r -t 0.524378666666666 -s 0 -d 1 -p tcp -e 40 -c 16 -i 16 -a 16 -x {5.0 27.0 0 ------- null}
+ -t 0.524378666666666 -s 1 -d 27 -p tcp -e 40 -c 16 -i 16 -a 16 -x {5.0 27.0 0 ------- null}
- -t 0.524378666666666 -s 1 -d 27 -p tcp -e 40 -c 16 -i 16 -a 16 -x {5.0 27.0 0 ------- null}
h -t 0.524378666666666 -s 1 -d 27 -p tcp -e 40 -c 16 -i 16 -a 16 -x {5.0 27.0 -1 ------- null}
r -t 0.524490666666667 -s 1 -d 34 -p tcp -e 40 -c 1 -i 1 -a 1 -x {15.0 34.0 0 ------- null}
+ -t 0.524490666666667 -s 34 -d 1 -p ack -e 40 -c 1 -i 21 -a 1 -x {34.0 15.0 0 ------- null}
- -t 0.524490666666667 -s 34 -d 1 -p ack -e 40 -c 1 -i 21 -a 1 -x {34.0 15.0 0 ------- null}
h -t 0.524490666666667 -s 34 -d 1 -p ack -e 40 -c 1 -i 21 -a 1 -x {34.0 15.0 -1 ------- null}
r -t 0.524592 -s 0 -d 1 -p tcp -e 40 -c 5 -i 5 -a 5 -x {17.1 33.0 0 ------- null}
+ -t 0.524592 -s 1 -d 33 -p tcp -e 40 -c 5 -i 5 -a 5 -x {17.1 33.0 0 ------- null}
- -t 0.524592 -s 1 -d 33 -p tcp -e 40 -c 5 -i 5 -a 5 -x {17.1 33.0 0 ------- null}
h -t 0.524592 -s 1 -d 33 -p tcp -e 40 -c 5 -i 5 -a 5 -x {17.1 33.0 -1 ------- null}
r -t 0.524704 -s 1 -d 23 -p tcp -e 40 -c 2 -i 2 -a 2 -x {14.0 23.0 0 ------- null}
+ -t 0.524704 -s 23 -d 1 -p ack -e 40 -c 2 -i 22 -a 2 -x {23.0 14.0 0 ------- null}
- -t 0.524704 -s 23 -d 1 -p ack -e 40 -c 2 -i 22 -a 2 -x {23.0 14.0 0 ------- null}
h -t 0.524704 -s 23 -d 1 -p ack -e 40 -c 2 -i 22 -a 2 -x {23.0 14.0 -1 ------- null}
r -t 0.524805333333333 -s 0 -d 1 -p tcp -e 40 -c 18 -i 18 -a 18 -x {14.1 28.1 0 ------- null}
+ -t 0.524805333333333 -s 1 -d 28 -p tcp -e 40 -c 18 -i 18 -a 18 -x {14.1 28.1 0 ------- null}
- -t 0.524805333333333 -s 1 -d 28 -p tcp -e 40 -c 18 -i 18 -a 18 -x {14.1 28.1 0 ------- null}
h -t 0.524805333333333 -s 1 -d 28 -p tcp -e 40 -c 18 -i 18 -a 18 -x {14.1 28.1 -1 ------- null}
r -t 0.524917333333333 -s 1 -d 30 -p tcp -e 40 -c 3 -i 3 -a 3 -x {11.0 30.0 0 ------- null}
+ -t 0.524917333333333 -s 30 -d 1 -p ack -e 40 -c 3 -i 23 -a 3 -x {30.0 11.0 0 ------- null}
- -t 0.524917333333333 -s 30 -d 1 -p ack -e 40 -c 3 -i 23 -a 3 -x {30.0 11.0 0 ------- null}
h -t 0.524917333333333 -s 30 -d 1 -p ack -e 40 -c 3 -i 23 -a 3 -x {30.0 11.0 -1 ------- null}
r -t 0.525018666666666 -s 0 -d 1 -p tcp -e 40 -c 7 -i 7 -a 7 -x {11.1 39.0 0 ------- null}
+ -t 0.525018666666666 -s 1 -d 39 -p tcp -e 40 -c 7 -i 7 -a 7 -x {11.1 39.0 0 ------- null}
- -t 0.525018666666666 -s 1 -d 39 -p tcp -e 40 -c 7 -i 7 -a 7 -x {11.1 39.0 0 ------- null}
h -t 0.525018666666666 -s 1 -d 39 -p tcp -e 40 -c 7 -i 7 -a 7 -x {11.1 39.0 -1 ------- null}
r -t 0.525130666666667 -s 1 -d 34 -p tcp -e 40 -c 4 -i 4 -a 4 -x {13.0 34.1 0 ------- null}
+ -t 0.525130666666667 -s 34 -d 1 -p ack -e 40 -c 4 -i 24 -a 4 -x {34.1 13.0 0 ------- null}
- -t 0.525130666666667 -s 34 -d 1 -p ack -e 40 -c 4 -i 24 -a 4 -x {34.1 13.0 0 ------- null}
h -t 0.525130666666667 -s 34 -d 1 -p ack -e 40 -c 4 -i 24 -a 4 -x {34.1 13.0 -1 ------- null}
r -t 0.525231999999999 -s 0 -d 1 -p tcp -e 40 -c 11 -i 11 -a 11 -x {8.1 34.3 0 ------- null}
+ -t 0.525231999999999 -s 1 -d 34 -p tcp -e 40 -c 11 -i 11 -a 11 -x {8.1 34.3 0 ------- null}
- -t 0.525231999999999 -s 1 -d 34 -p tcp -e 40 -c 11 -i 11 -a 11 -x {8.1 34.3 0 ------- null}
h -t 0.525231999999999 -s 1 -d 34 -p tcp -e 40 -c 11 -i 11 -a 11 -x {8.1 34.3 -1 ------- null}
r -t 0.525344 -s 1 -d 32 -p tcp -e 40 -c 6 -i 6 -a 6 -x {8.0 32.1 0 ------- null}
+ -t 0.525344 -s 32 -d 1 -p ack -e 40 -c 6 -i 25 -a 6 -x {32.1 8.0 0 ------- null}
- -t 0.525344 -s 32 -d 1 -p ack -e 40 -c 6 -i 25 -a 6 -x {32.1 8.0 0 ------- null}
h -t 0.525344 -s 32 -d 1 -p ack -e 40 -c 6 -i 25 -a 6 -x {32.1 8.0 -1 ------- null}
r -t 0.525445333333333 -s 0 -d 1 -p tcp -e 40 -c 17 -i 17 -a 17 -x {20.1 28.0 0 ------- null}
+ -t 0.525445333333333 -s 1 -d 28 -p tcp -e 40 -c 17 -i 17 -a 17 -x {20.1 28.0 0 ------- null}
- -t 0.525445333333333 -s 1 -d 28 -p tcp -e 40 -c 17 -i 17 -a 17 -x {20.1 28.0 0 ------- null}
h -t 0.525445333333333 -s 1 -d 28 -p tcp -e 40 -c 17 -i 17 -a 17 -x {20.1 28.0 -1 ------- null}
r -t 0.525557333333333 -s 1 -d 29 -p tcp -e 40 -c 10 -i 10 -a 10 -x {2.0 29.0 0 ------- null}
+ -t 0.525557333333333 -s 29 -d 1 -p ack -e 40 -c 10 -i 26 -a 10 -x {29.0 2.0 0 ------- null}
- -t 0.525557333333333 -s 29 -d 1 -p ack -e 40 -c 10 -i 26 -a 10 -x {29.0 2.0 0 ------- null}
h -t 0.525557333333333 -s 29 -d 1 -p ack -e 40 -c 10 -i 26 -a 10 -x {29.0 2.0 -1 ------- null}
r -t 0.525658666666666 -s 0 -d 1 -p tcp -e 40 -c 13 -i 13 -a 13 -x {17.2 37.0 0 ------- null}
+ -t 0.525658666666666 -s 1 -d 37 -p tcp -e 40 -c 13 -i 13 -a 13 -x {17.2 37.0 0 ------- null}
- -t 0.525658666666666 -s 1 -d 37 -p tcp -e 40 -c 13 -i 13 -a 13 -x {17.2 37.0 0 ------- null}
h -t 0.525658666666666 -s 1 -d 37 -p tcp -e 40 -c 13 -i 13 -a 13 -x {17.2 37.0 -1 ------- null}
r -t 0.525770666666666 -s 1 -d 24 -p tcp -e 40 -c 12 -i 12 -a 12 -x {7.0 24.0 0 ------- null}
+ -t 0.525770666666666 -s 24 -d 1 -p ack -e 40 -c 12 -i 27 -a 12 -x {24.0 7.0 0 ------- null}
- -t 0.525770666666666 -s 24 -d 1 -p ack -e 40 -c 12 -i 27 -a 12 -x {24.0 7.0 0 ------- null}
h -t 0.525770666666666 -s 24 -d 1 -p ack -e 40 -c 12 -i 27 -a 12 -x {24.0 7.0 -1 ------- null}
r -t 0.525871999999999 -s 0 -d 1 -p tcp -e 40 -c 8 -i 8 -a 8 -x {11.2 34.2 0 ------- null}
+ -t 0.525871999999999 -s 1 -d 34 -p tcp -e 40 -c 8 -i 8 -a 8 -x {11.2 34.2 0 ------- null}
- -t 0.525871999999999 -s 1 -d 34 -p tcp -e 40 -c 8 -i 8 -a 8 -x {11.2 34.2 0 ------- null}
h -t 0.525871999999999 -s 1 -d 34 -p tcp -e 40 -c 8 -i 8 -a 8 -x {11.2 34.2 -1 ------- null}
r -t 0.525984 -s 1 -d 39 -p tcp -e 40 -c 14 -i 14 -a 14 -x {20.0 39.2 0 ------- null}
+ -t 0.525984 -s 39 -d 1 -p ack -e 40 -c 14 -i 28 -a 14 -x {39.2 20.0 0 ------- null}
- -t 0.525984 -s 39 -d 1 -p ack -e 40 -c 14 -i 28 -a 14 -x {39.2 20.0 0 ------- null}
h -t 0.525984 -s 39 -d 1 -p ack -e 40 -c 14 -i 28 -a 14 -x {39.2 20.0 -1 ------- null}
r -t 0.526085333333333 -s 0 -d 1 -p tcp -e 40 -c 9 -i 9 -a 9 -x {11.3 39.1 0 ------- null}
+ -t 0.526085333333333 -s 1 -d 39 -p tcp -e 40 -c 9 -i 9 -a 9 -x {11.3 39.1 0 ------- null}
- -t 0.526085333333333 -s 1 -d 39 -p tcp -e 40 -c 9 -i 9 -a 9 -x {11.3 39.1 0 ------- null}
h -t 0.526085333333333 -s 1 -d 39 -p tcp -e 40 -c 9 -i 9 -a 9 -x {11.3 39.1 -1 ------- null}
r -t 0.526197333333333 -s 1 -d 32 -p tcp -e 40 -c 15 -i 15 -a 15 -x {3.0 32.2 0 ------- null}
+ -t 0.526197333333333 -s 32 -d 1 -p ack -e 40 -c 15 -i 29 -a 15 -x {32.2 3.0 0 ------- null}
- -t 0.526197333333333 -s 32 -d 1 -p ack -e 40 -c 15 -i 29 -a 15 -x {32.2 3.0 0 ------- null}
h -t 0.526197333333333 -s 32 -d 1 -p ack -e 40 -c 15 -i 29 -a 15 -x {32.2 3.0 -1 ------- null}
r -t 0.526298666666666 -s 0 -d 1 -p tcp -e 40 -c 19 -i 19 -a 19 -x {11.4 31.0 0 ------- null}
+ -t 0.526298666666666 -s 1 -d 31 -p tcp -e 40 -c 19 -i 19 -a 19 -x {11.4 31.0 0 ------- null}
- -t 0.526298666666666 -s 1 -d 31 -p tcp -e 40 -c 19 -i 19 -a 19 -x {11.4 31.0 0 ------- null}
h -t 0.526298666666666 -s 1 -d 31 -p tcp -e 40 -c 19 -i 19 -a 19 -x {11.4 31.0 -1 ------- null}
r -t 0.526309333333333 -s 32 -d 1 -p ack -e 40 -c 0 -i 20 -a 0 -x {32.0 17.0 0 ------- null}
+ -t 0.526309333333333 -s 1 -d 0 -p ack -e 40 -c 0 -i 20 -a 0 -x {32.0 17.0 0 ------- null}
- -t 0.526309333333333 -s 1 -d 0 -p ack -e 40 -c 0 -i 20 -a 0 -x {32.0 17.0 0 ------- null}
h -t 0.526309333333333 -s 1 -d 0 -p ack -e 40 -c 0 -i 20 -a 0 -x {32.0 17.0 -1 ------- null}
r -t 0.526410666666666 -s 1 -d 27 -p tcp -e 40 -c 16 -i 16 -a 16 -x {5.0 27.0 0 ------- null}
+ -t 0.526410666666666 -s 27 -d 1 -p ack -e 40 -c 16 -i 30 -a 16 -x {27.0 5.0 0 ------- null}
- -t 0.526410666666666 -s 27 -d 1 -p ack -e 40 -c 16 -i 30 -a 16 -x {27.0 5.0 0 ------- null}
h -t 0.526410666666666 -s 27 -d 1 -p ack -e 40 -c 16 -i 30 -a 16 -x {27.0 5.0 -1 ------- null}
r -t 0.526522666666667 -s 34 -d 1 -p ack -e 40 -c 1 -i 21 -a 1 -x {34.0 15.0 0 ------- null}
+ -t 0.526522666666667 -s 1 -d 0 -p ack -e 40 -c 1 -i 21 -a 1 -x {34.0 15.0 0 ------- null}
- -t 0.526522666666667 -s 1 -d 0 -p ack -e 40 -c 1 -i 21 -a 1 -x {34.0 15.0 0 ------- null}
h -t 0.526522666666667 -s 1 -d 0 -p ack -e 40 -c 1 -i 21 -a 1 -x {34.0 15.0 -1 ------- null}
r -t 0.526624 -s 1 -d 33 -p tcp -e 40 -c 5 -i 5 -a 5 -x {17.1 33.0 0 ------- null}
+ -t 0.526624 -s 33 -d 1 -p ack -e 40 -c 5 -i 31 -a 5 -x {33.0 17.1 0 ------- null}
- -t 0.526624 -s 33 -d 1 -p ack -e 40 -c 5 -i 31 -a 5 -x {33.0 17.1 0 ------- null}
h -t 0.526624 -s 33 -d 1 -p ack -e 40 -c 5 -i 31 -a 5 -x {33.0 17.1 -1 ------- null}
r -t 0.526736 -s 23 -d 1 -p ack -e 40 -c 2 -i 22 -a 2 -x {23.0 14.0 0 ------- null}
+ -t 0.526736 -s 1 -d 0 -p ack -e 40 -c 2 -i 22 -a 2 -x {23.0 14.0 0 ------- null}
- -t 0.526736 -s 1 -d 0 -p ack -e 40 -c 2 -i 22 -a 2 -x {23.0 14.0 0 ------- null}
h -t 0.526736 -s 1 -d 0 -p ack -e 40 -c 2 -i 22 -a 2 -x {23.0 14.0 -1 ------- null}
r -t 0.526837333333333 -s 1 -d 28 -p tcp -e 40 -c 18 -i 18 -a 18 -x {14.1 28.1 0 ------- null}
+ -t 0.526837333333333 -s 28 -d 1 -p ack -e 40 -c 18 -i 32 -a 18 -x {28.1 14.1 0 ------- null}
- -t 0.526837333333333 -s 28 -d 1 -p ack -e 40 -c 18 -i 32 -a 18 -x {28.1 14.1 0 ------- null}
h -t 0.526837333333333 -s 28 -d 1 -p ack -e 40 -c 18 -i 32 -a 18 -x {28.1 14.1 -1 ------- null}
r -t 0.526949333333333 -s 30 -d 1 -p ack -e 40 -c 3 -i 23 -a 3 -x {30.0 11.0 0 ------- null}
+ -t 0.526949333333333 -s 1 -d 0 -p ack -e 40 -c 3 -i 23 -a 3 -x {30.0 11.0 0 ------- null}
- -t 0.526949333333333 -s 1 -d 0 -p ack -e 40 -c 3 -i 23 -a 3 -x {30.0 11.0 0 ------- null}
h -t 0.526949333333333 -s 1 -d 0 -p ack -e 40 -c 3 -i 23 -a 3 -x {30.0 11.0 -1 ------- null}
r -t 0.527050666666666 -s 1 -d 39 -p tcp -e 40 -c 7 -i 7 -a 7 -x {11.1 39.0 0 ------- null}
+ -t 0.527050666666666 -s 39 -d 1 -p ack -e 40 -c 7 -i 33 -a 7 -x {39.0 11.1 0 ------- null}
- -t 0.527050666666666 -s 39 -d 1 -p ack -e 40 -c 7 -i 33 -a 7 -x {39.0 11.1 0 ------- null}