+ 0.5 17 0 tcp 40 ------- 0 17.0 32.0 0 0
- 0.5 17 0 tcp 40 ------- 0 17.0 32.0 0 0
+ 0.5 15 0 tcp 40 ------- 1 15.0 34.0 0 1
- 0.5 15 0 tcp 40 ------- 1 15.0 34.0 0 1
+ 0.5 14 0 tcp 40 ------- 2 14.0 23.0 0 2
- 0.5 14 0 tcp 40 ------- 2 14.0 23.0 0 2
+ 0.5 11 0 tcp 40 ------- 3 11.0 30.0 0 3
- 0.5 11 0 tcp 40 ------- 3 11.0 30.0 0 3
+ 0.5 13 0 tcp 40 ------- 4 13.0 34.1 0 4
- 0.5 13 0 tcp 40 ------- 4 13.0 34.1 0 4
+ 0.5 17 0 tcp 40 ------- 5 17.1 33.0 0 5
+ 0.5 8 0 tcp 40 ------- 6 8.0 32.1 0 6
- 0.5 8 0 tcp 40 ------- 6 8.0 32.1 0 6
+ 0.5 11 0 tcp 40 ------- 7 11.1 39.0 0 7
+ 0.5 11 0 tcp 40 ------- 8 11.2 34.2 0 8
+ 0.5 11 0 tcp 40 ------- 9 11.3 39.1 0 9
+ 0.5 2 0 tcp 40 ------- 10 2.0 29.0 0 10
- 0.5 2 0 tcp 40 ------- 10 2.0 29.0 0 10
+ 0.5 8 0 tcp 40 ------- 11 8.1 34.3 0 11
+ 0.5 7 0 tcp 40 ------- 12 7.0 24.0 0 12
- 0.5 7 0 tcp 40 ------- 12 7.0 24.0 0 12
+ 0.5 17 0 tcp 40 ------- 13 17.2 37.0 0 13
+ 0.5 20 0 tcp 40 ------- 14 20.0 39.2 0 14
- 0.5 20 0 tcp 40 ------- 14 20.0 39.2 0 14
+ 0.5 3 0 tcp 40 ------- 15 3.0 32.2 0 15
- 0.5 3 0 tcp 40 ------- 15 3.0 32.2 0 15
+ 0.5 5 0 tcp 40 ------- 16 5.0 27.0 0 16
- 0.5 5 0 tcp 40 ------- 16 5.0 27.0 0 16
+ 0.5 20 0 tcp 40 ------- 17 20.1 28.0 0 17
+ 0.5 14 0 tcp 40 ------- 18 14.1 28.1 0 18
+ 0.5 11 0 tcp 40 ------- 19 11.4 31.0 0 19
- 0.500032 17 0 tcp 40 ------- 5 17.1 33.0 0 5
- 0.500032 14 0 tcp 40 ------- 18 14.1 28.1 0 18
- 0.500032 11 0 tcp 40 ------- 7 11.1 39.0 0 7
- 0.500032 8 0 tcp 40 ------- 11 8.1 34.3 0 11
- 0.500032 20 0 tcp 40 ------- 17 20.1 28.0 0 17
- 0.500064 17 0 tcp 40 ------- 13 17.2 37.0 0 13
- 0.500064 11 0 tcp 40 ------- 8 11.2 34.2 0 8
- 0.500096 11 0 tcp 40 ------- 9 11.3 39.1 0 9
- 0.500128 11 0 tcp 40 ------- 19 11.4 31.0 0 19
r 0.502032 17 0 tcp 40 ------- 0 17.0 32.0 0 0
+ 0.502032 0 1 tcp 40 ------- 0 17.0 32.0 0 0
- 0.502032 0 1 tcp 40 ------- 0 17.0 32.0 0 0
r 0.502032 15 0 tcp 40 ------- 1 15.0 34.0 0 1
+ 0.502032 0 1 tcp 40 ------- 1 15.0 34.0 0 1
r 0.502032 14 0 tcp 40 ------- 2 14.0 23.0 0 2
+ 0.502032 0 1 tcp 40 ------- 2 14.0 23.0 0 2
r 0.502032 11 0 tcp 40 ------- 3 11.0 30.0 0 3
+ 0.502032 0 1 tcp 40 ------- 3 11.0 30.0 0 3
r 0.502032 13 0 tcp 40 ------- 4 13.0 34.1 0 4
+ 0.502032 0 1 tcp 40 ------- 4 13.0 34.1 0 4
r 0.502032 8 0 tcp 40 ------- 6 8.0 32.1 0 6
+ 0.502032 0 1 tcp 40 ------- 6 8.0 32.1 0 6
r 0.502032 2 0 tcp 40 ------- 10 2.0 29.0 0 10
+ 0.502032 0 1 tcp 40 ------- 10 2.0 29.0 0 10
r 0.502032 7 0 tcp 40 ------- 12 7.0 24.0 0 12
+ 0.502032 0 1 tcp 40 ------- 12 7.0 24.0 0 12
r 0.502032 20 0 tcp 40 ------- 14 20.0 39.2 0 14
+ 0.502032 0 1 tcp 40 ------- 14 20.0 39.2 0 14
r 0.502032 3 0 tcp 40 ------- 15 3.0 32.2 0 15
+ 0.502032 0 1 tcp 40 ------- 15 3.0 32.2 0 15
r 0.502032 5 0 tcp 40 ------- 16 5.0 27.0 0 16
+ 0.502032 0 1 tcp 40 ------- 16 5.0 27.0 0 16
r 0.502064 17 0 tcp 40 ------- 5 17.1 33.0 0 5
+ 0.502064 0 1 tcp 40 ------- 5 17.1 33.0 0 5
r 0.502064 14 0 tcp 40 ------- 18 14.1 28.1 0 18
+ 0.502064 0 1 tcp 40 ------- 18 14.1 28.1 0 18
r 0.502064 11 0 tcp 40 ------- 7 11.1 39.0 0 7
+ 0.502064 0 1 tcp 40 ------- 7 11.1 39.0 0 7
r 0.502064 8 0 tcp 40 ------- 11 8.1 34.3 0 11
+ 0.502064 0 1 tcp 40 ------- 11 8.1 34.3 0 11
r 0.502064 20 0 tcp 40 ------- 17 20.1 28.0 0 17
+ 0.502064 0 1 tcp 40 ------- 17 20.1 28.0 0 17
r 0.502096 17 0 tcp 40 ------- 13 17.2 37.0 0 13
+ 0.502096 0 1 tcp 40 ------- 13 17.2 37.0 0 13
r 0.502096 11 0 tcp 40 ------- 8 11.2 34.2 0 8
+ 0.502096 0 1 tcp 40 ------- 8 11.2 34.2 0 8
r 0.502128 11 0 tcp 40 ------- 9 11.3 39.1 0 9
+ 0.502128 0 1 tcp 40 ------- 9 11.3 39.1 0 9
r 0.50216 11 0 tcp 40 ------- 19 11.4 31.0 0 19
+ 0.50216 0 1 tcp 40 ------- 19 11.4 31.0 0 19
- 0.502245 0 1 tcp 40 ------- 1 15.0 34.0 0 1
- 0.502459 0 1 tcp 40 ------- 2 14.0 23.0 0 2
- 0.502672 0 1 tcp 40 ------- 3 11.0 30.0 0 3
- 0.502885 0 1 tcp 40 ------- 4 13.0 34.1 0 4
- 0.503099 0 1 tcp 40 ------- 6 8.0 32.1 0 6
- 0.503312 0 1 tcp 40 ------- 10 2.0 29.0 0 10
- 0.503525 0 1 tcp 40 ------- 12 7.0 24.0 0 12
- 0.503739 0 1 tcp 40 ------- 14 20.0 39.2 0 14
- 0.503952 0 1 tcp 40 ------- 15 3.0 32.2 0 15
- 0.504165 0 1 tcp 40 ------- 16 5.0 27.0 0 16
- 0.504379 0 1 tcp 40 ------- 5 17.1 33.0 0 5
- 0.504592 0 1 tcp 40 ------- 18 14.1 28.1 0 18
- 0.504805 0 1 tcp 40 ------- 7 11.1 39.0 0 7
- 0.505019 0 1 tcp 40 ------- 11 8.1 34.3 0 11
- 0.505232 0 1 tcp 40 ------- 17 20.1 28.0 0 17
- 0.505445 0 1 tcp 40 ------- 13 17.2 37.0 0 13
- 0.505659 0 1 tcp 40 ------- 8 11.2 34.2 0 8
- 0.505872 0 1 tcp 40 ------- 9 11.3 39.1 0 9
- 0.506085 0 1 tcp 40 ------- 19 11.4 31.0 0 19
r 0.522245 0 1 tcp 40 ------- 0 17.0 32.0 0 0
+ 0.522245 1 32 tcp 40 ------- 0 17.0 32.0 0 0
- 0.522245 1 32 tcp 40 ------- 0 17.0 32.0 0 0
r 0.522459 0 1 tcp 40 ------- 1 15.0 34.0 0 1
+ 0.522459 1 34 tcp 40 ------- 1 15.0 34.0 0 1
- 0.522459 1 34 tcp 40 ------- 1 15.0 34.0 0 1
r 0.522672 0 1 tcp 40 ------- 2 14.0 23.0 0 2
+ 0.522672 1 23 tcp 40 ------- 2 14.0 23.0 0 2
- 0.522672 1 23 tcp 40 ------- 2 14.0 23.0 0 2
r 0.522885 0 1 tcp 40 ------- 3 11.0 30.0 0 3
+ 0.522885 1 30 tcp 40 ------- 3 11.0 30.0 0 3
- 0.522885 1 30 tcp 40 ------- 3 11.0 30.0 0 3
r 0.523099 0 1 tcp 40 ------- 4 13.0 34.1 0 4
+ 0.523099 1 34 tcp 40 ------- 4 13.0 34.1 0 4
- 0.523099 1 34 tcp 40 ------- 4 13.0 34.1 0 4
r 0.523312 0 1 tcp 40 ------- 6 8.0 32.1 0 6
+ 0.523312 1 32 tcp 40 ------- 6 8.0 32.1 0 6
- 0.523312 1 32 tcp 40 ------- 6 8.0 32.1 0 6
r 0.523525 0 1 tcp 40 ------- 10 2.0 29.0 0 10
+ 0.523525 1 29 tcp 40 ------- 10 2.0 29.0 0 10
- 0.523525 1 29 tcp 40 ------- 10 2.0 29.0 0 10
r 0.523739 0 1 tcp 40 ------- 12 7.0 24.0 0 12
+ 0.523739 1 24 tcp 40 ------- 12 7.0 24.0 0 12
- 0.523739 1 24 tcp 40 ------- 12 7.0 24.0 0 12
r 0.523952 0 1 tcp 40 ------- 14 20.0 39.2 0 14
+ 0.523952 1 39 tcp 40 ------- 14 20.0 39.2 0 14
- 0.523952 1 39 tcp 40 ------- 14 20.0 39.2 0 14
r 0.524165 0 1 tcp 40 ------- 15 3.0 32.2 0 15
+ 0.524165 1 32 tcp 40 ------- 15 3.0 32.2 0 15
- 0.524165 1 32 tcp 40 ------- 15 3.0 32.2 0 15
r 0.524277 1 32 tcp 40 ------- 0 17.0 32.0 0 0
+ 0.524277 32 1 ack 40 ------- 0 32.0 17.0 0 20
- 0.524277 32 1 ack 40 ------- 0 32.0 17.0 0 20
r 0.524379 0 1 tcp 40 ------- 16 5.0 27.0 0 16
+ 0.524379 1 27 tcp 40 ------- 16 5.0 27.0 0 16
- 0.524379 1 27 tcp 40 ------- 16 5.0 27.0 0 16
r 0.524491 1 34 tcp 40 ------- 1 15.0 34.0 0 1
+ 0.524491 34 1 ack 40 ------- 1 34.0 15.0 0 21
- 0.524491 34 1 ack 40 ------- 1 34.0 15.0 0 21
r 0.524592 0 1 tcp 40 ------- 5 17.1 33.0 0 5
+ 0.524592 1 33 tcp 40 ------- 5 17.1 33.0 0 5
- 0.524592 1 33 tcp 40 ------- 5 17.1 33.0 0 5
r 0.524704 1 23 tcp 40 ------- 2 14.0 23.0 0 2
+ 0.524704 23 1 ack 40 ------- 2 23.0 14.0 0 22
- 0.524704 23 1 ack 40 ------- 2 23.0 14.0 0 22
r 0.524805 0 1 tcp 40 ------- 18 14.1 28.1 0 18
+ 0.524805 1 28 tcp 40 ------- 18 14.1 28.1 0 18
- 0.524805 1 28 tcp 40 ------- 18 14.1 28.1 0 18
r 0.524917 1 30 tcp 40 ------- 3 11.0 30.0 0 3
+ 0.524917 30 1 ack 40 ------- 3 30.0 11.0 0 23
- 0.524917 30 1 ack 40 ------- 3 30.0 11.0 0 23
r 0.525019 0 1 tcp 40 ------- 7 11.1 39.0 0 7
+ 0.525019 1 39 tcp 40 ------- 7 11.1 39.0 0 7
- 0.525019 1 39 tcp 40 ------- 7 11.1 39.0 0 7
r 0.525131 1 34 tcp 40 ------- 4 13.0 34.1 0 4
+ 0.525131 34 1 ack 40 ------- 4 34.1 13.0 0 24
- 0.525131 34 1 ack 40 ------- 4 34.1 13.0 0 24
r 0.525232 0 1 tcp 40 ------- 11 8.1 34.3 0 11
+ 0.525232 1 34 tcp 40 ------- 11 8.1 34.3 0 11
- 0.525232 1 34 tcp 40 ------- 11 8.1 34.3 0 11
r 0.525344 1 32 tcp 40 ------- 6 8.0 32.1 0 6
+ 0.525344 32 1 ack 40 ------- 6 32.1 8.0 0 25
- 0.525344 32 1 ack 40 ------- 6 32.1 8.0 0 25
r 0.525445 0 1 tcp 40 ------- 17 20.1 28.0 0 17
+ 0.525445 1 28 tcp 40 ------- 17 20.1 28.0 0 17
- 0.525445 1 28 tcp 40 ------- 17 20.1 28.0 0 17
r 0.525557 1 29 tcp 40 ------- 10 2.0 29.0 0 10
+ 0.525557 29 1 ack 40 ------- 10 29.0 2.0 0 26
- 0.525557 29 1 ack 40 ------- 10 29.0 2.0 0 26
r 0.525659 0 1 tcp 40 ------- 13 17.2 37.0 0 13
+ 0.525659 1 37 tcp 40 ------- 13 17.2 37.0 0 13
- 0.525659 1 37 tcp 40 ------- 13 17.2 37.0 0 13
r 0.525771 1 24 tcp 40 ------- 12 7.0 24.0 0 12
+ 0.525771 24 1 ack 40 ------- 12 24.0 7.0 0 27
- 0.525771 24 1 ack 40 ------- 12 24.0 7.0 0 27
r 0.525872 0 1 tcp 40 ------- 8 11.2 34.2 0 8
+ 0.525872 1 34 tcp 40 ------- 8 11.2 34.2 0 8
- 0.525872 1 34 tcp 40 ------- 8 11.2 34.2 0 8
r 0.525984 1 39 tcp 40 ------- 14 20.0 39.2 0 14
+ 0.525984 39 1 ack 40 ------- 14 39.2 20.0 0 28
- 0.525984 39 1 ack 40 ------- 14 39.2 20.0 0 28
r 0.526085 0 1 tcp 40 ------- 9 11.3 39.1 0 9
+ 0.526085 1 39 tcp 40 ------- 9 11.3 39.1 0 9
- 0.526085 1 39 tcp 40 ------- 9 11.3 39.1 0 9
r 0.526197 1 32 tcp 40 ------- 15 3.0 32.2 0 15
+ 0.526197 32 1 ack 40 ------- 15 32.2 3.0 0 29
- 0.526197 32 1 ack 40 ------- 15 32.2 3.0 0 29
r 0.526299 0 1 tcp 40 ------- 19 11.4 31.0 0 19
+ 0.526299 1 31 tcp 40 ------- 19 11.4 31.0 0 19
- 0.526299 1 31 tcp 40 ------- 19 11.4 31.0 0 19
r 0.526309 32 1 ack 40 ------- 0 32.0 17.0 0 20
+ 0.526309 1 0 ack 40 ------- 0 32.0 17.0 0 20
- 0.526309 1 0 ack 40 ------- 0 32.0 17.0 0 20
r 0.526411 1 27 tcp 40 ------- 16 5.0 27.0 0 16
+ 0.526411 27 1 ack 40 ------- 16 27.0 5.0 0 30
- 0.526411 27 1 ack 40 ------- 16 27.0 5.0 0 30
r 0.526523 34 1 ack 40 ------- 1 34.0 15.0 0 21
+ 0.526523 1 0 ack 40 ------- 1 34.0 15.0 0 21
- 0.526523 1 0 ack 40 ------- 1 34.0 15.0 0 21
r 0.526624 1 33 tcp 40 ------- 5 17.1 33.0 0 5
+ 0.526624 33 1 ack 40 ------- 5 33.0 17.1 0 31
- 0.526624 33 1 ack 40 ------- 5 33.0 17.1 0 31
r 0.526736 23 1 ack 40 ------- 2 23.0 14.0 0 22
+ 0.526736 1 0 ack 40 ------- 2 23.0 14.0 0 22
- 0.526736 1 0 ack 40 ------- 2 23.0 14.0 0 22
r 0.526837 1 28 tcp 40 ------- 18 14.1 28.1 0 18
+ 0.526837 28 1 ack 40 ------- 18 28.1 14.1 0 32
- 0.526837 28 1 ack 40 ------- 18 28.1 14.1 0 32
r 0.526949 30 1 ack 40 ------- 3 30.0 11.0 0 23
+ 0.526949 1 0 ack 40 ------- 3 30.0 11.0 0 23
- 0.526949 1 0 ack 40 ------- 3 30.0 11.0 0 23
r 0.527051 1 39 tcp 40 ------- 7 11.1 39.0 0 7
+ 0.527051 39 1 ack 40 ------- 7 39.0 11.1 0 33
- 0.527051 39 1 ack 40 ------- 7 39.0 11.1 0 33
r 0.527163 34 1 ack 40 ------- 4 34.1 13.0 0 24
+ 0.527163 1 0 ack 40 ------- 4 34.1 13.0 0 24
- 0.527163 1 0 ack 40 ------- 4 34.1 13.0 0 24
r 0.527264 1 34 tcp 40 ------- 11 8.1 34.3 0 11
+ 0.527264 34 1 ack 40 ------- 11 34.3 8.1 0 34
- 0.527264 34 1 ack 40 ------- 11 34.3 8.1 0 34
r 0.527376 32 1 ack 40 ------- 6 32.1 8.0 0 25
+ 0.527376 1 0 ack 40 ------- 6 32.1 8.0 0 25
- 0.527376 1 0 ack 40 ------- 6 32.1 8.0 0 25
r 0.527477 1 28 tcp 40 ------- 17 20.1 28.0 0 17
+ 0.527477 28 1 ack 40 ------- 17 28.0 20.1 0 35
- 0.527477 28 1 ack 40 ------- 17 28.0 20.1 0 35
r 0.527589 29 1 ack 40 ------- 10 29.0 2.0 0 26
+ 0.527589 1 0 ack 40 ------- 10 29.0 2.0 0 26
- 0.527589 1 0 ack 40 ------- 10 29.0 2.0 0 26
r 0.527691 1 37 tcp 40 ------- 13 17.2 37.0 0 13
+ 0.527691 37 1 ack 40 ------- 13 37.0 17.2 0 36
- 0.527691 37 1 ack 40 ------- 13 37.0 17.2 0 36
r 0.527803 24 1 ack 40 ------- 12 24.0 7.0 0 27
+ 0.527803 1 0 ack 40 ------- 12 24.0 7.0 0 27
- 0.527803 1 0 ack 40 ------- 12 24.0 7.0 0 27
r 0.527904 1 34 tcp 40 ------- 8 11.2 34.2 0 8
+ 0.527904 34 1 ack 40 ------- 8 34.2 11.2 0 37
- 0.527904 34 1 ack 40 ------- 8 34.2 11.2 0 37
r 0.528016 39 1 ack 40 ------- 14 39.2 20.0 0 28
+ 0.528016 1 0 ack 40 ------- 14 39.2 20.0 0 28
- 0.528016 1 0 ack 40 ------- 14 39.2 20.0 0 28
r 0.528117 1 39 tcp 40 ------- 9 11.3 39.1 0 9
+ 0.528117 39 1 ack 40 ------- 9 39.1 11.3 0 38
- 0.528117 39 1 ack 40 ------- 9 39.1 11.3 0 38
r 0.528229 32 1 ack 40 ------- 15 32.2 3.0 0 29
+ 0.528229 1 0 ack 40 ------- 15 32.2 3.0 0 29
- 0.528229 1 0 ack 40 ------- 15 32.2 3.0 0 29
r 0.528331 1 31 tcp 40 ------- 19 11.4 31.0 0 19
+ 0.528331 31 1 ack 40 ------- 19 31.0 11.4 0 39
- 0.528331 31 1 ack 40 ------- 19 31.0 11.4 0 39
r 0.528443 27 1 ack 40 ------- 16 27.0 5.0 0 30
+ 0.528443 1 0 ack 40 ------- 16 27.0 5.0 0 30
- 0.528443 1 0 ack 40 ------- 16 27.0 5.0 0 30
r 0.528656 33 1 ack 40 ------- 5 33.0 17.1 0 31
+ 0.528656 1 0 ack 40 ------- 5 33.0 17.1 0 31
- 0.528656 1 0 ack 40 ------- 5 33.0 17.1 0 31
r 0.528869 28 1 ack 40 ------- 18 28.1 14.1 0 32
+ 0.528869 1 0 ack 40 ------- 18 28.1 14.1 0 32
- 0.528869 1 0 ack 40 ------- 18 28.1 14.1 0 32
r 0.529083 39 1 ack 40 ------- 7 39.0 11.1 0 33
+ 0.529083 1 0 ack 40 ------- 7 39.0 11.1 0 33
- 0.529083 1 0 ack 40 ------- 7 39.0 11.1 0 33
r 0.529296 34 1 ack 40 ------- 11 34.3 8.1 0 34
+ 0.529296 1 0 ack 40 ------- 11 34.3 8.1 0 34
- 0.529296 1 0 ack 40 ------- 11 34.3 8.1 0 34
r 0.529509 28 1 ack 40 ------- 17 28.0 20.1 0 35
+ 0.529509 1 0 ack 40 ------- 17 28.0 20.1 0 35
- 0.529509 1 0 ack 40 ------- 17 28.0 20.1 0 35
r 0.529723 37 1 ack 40 ------- 13 37.0 17.2 0 36
+ 0.529723 1 0 ack 40 ------- 13 37.0 17.2 0 36
- 0.529723 1 0 ack 40 ------- 13 37.0 17.2 0 36
r 0.529936 34 1 ack 40 ------- 8 34.2 11.2 0 37
+ 0.529936 1 0 ack 40 ------- 8 34.2 11.2 0 37
- 0.529936 1 0 ack 40 ------- 8 34.2 11.2 0 37
r 0.530149 39 1 ack 40 ------- 9 39.1 11.3 0 38
+ 0.530149 1 0 ack 40 ------- 9 39.1 11.3 0 38
- 0.530149 1 0 ack 40 ------- 9 39.1 11.3 0 38
r 0.530363 31 1 ack 40 ------- 19 31.0 11.4 0 39
+ 0.530363 1 0 ack 40 ------- 19 31.0 11.4 0 39
- 0.530363 1 0 ack 40 ------- 19 31.0 11.4 0 39
r 0.546523 1 0 ack 40 ------- 0 32.0 17.0 0 20
+ 0.546523 0 17 ack 40 ------- 0 32.0 17.0 0 20
- 0.546523 0 17 ack 40 ------- 0 32.0 17.0 0 20
r 0.546736 1 0 ack 40 ------- 1 34.0 15.0 0 21
+ 0.546736 0 15 ack 40 ------- 1 34.0 15.0 0 21
- 0.546736 0 15 ack 40 ------- 1 34.0 15.0 0 21
r 0.546949 1 0 ack 40 ------- 2 23.0 14.0 0 22
+ 0.546949 0 14 ack 40 ------- 2 23.0 14.0 0 22
- 0.546949 0 14 ack 40 ------- 2 23.0 14.0 0 22
r 0.547163 1 0 ack 40 ------- 3 30.0 11.0 0 23
+ 0.547163 0 11 ack 40 ------- 3 30.0 11.0 0 23
- 0.547163 0 11 ack 40 ------- 3 30.0 11.0 0 23
r 0.547376 1 0 ack 40 ------- 4 34.1 13.0 0 24
+ 0.547376 0 13 ack 40 ------- 4 34.1 13.0 0 24
- 0.547376 0 13 ack 40 ------- 4 34.1 13.0 0 24
r 0.547589 1 0 ack 40 ------- 6 32.1 8.0 0 25
+ 0.547589 0 8 ack 40 ------- 6 32.1 8.0 0 25
- 0.547589 0 8 ack 40 ------- 6 32.1 8.0 0 25
r 0.547803 1 0 ack 40 ------- 10 29.0 2.0 0 26
+ 0.547803 0 2 ack 40 ------- 10 29.0 2.0 0 26
- 0.547803 0 2 ack 40 ------- 10 29.0 2.0 0 26
r 0.548016 1 0 ack 40 ------- 12 24.0 7.0 0 27
+ 0.548016 0 7 ack 40 ------- 12 24.0 7.0 0 27
- 0.548016 0 7 ack 40 ------- 12 24.0 7.0 0 27
r 0.548229 1 0 ack 40 ------- 14 39.2 20.0 0 28
+ 0.548229 0 20 ack 40 ------- 14 39.2 20.0 0 28
- 0.548229 0 20 ack 40 ------- 14 39.2 20.0 0 28
r 0.548443 1 0 ack 40 ------- 15 32.2 3.0 0 29
+ 0.548443 0 3 ack 40 ------- 15 32.2 3.0 0 29
- 0.548443 0 3 ack 40 ------- 15 32.2 3.0 0 29
r 0.548555 0 17 ack 40 ------- 0 32.0 17.0 0 20
+ 0.548555 17 0 tcp 1040 ------- 0 17.0 32.0 1 40
- 0.548555 17 0 tcp 1040 ------- 0 17.0 32.0 1 40
+ 0.548555 17 0 tcp 1040 ------- 0 17.0 32.0 2 41
r 0.548656 1 0 ack 40 ------- 16 27.0 5.0 0 30
+ 0.548656 0 5 ack 40 ------- 16 27.0 5.0 0 30
- 0.548656 0 5 ack 40 ------- 16 27.0 5.0 0 30
r 0.548768 0 15 ack 40 ------- 1 34.0 15.0 0 21
+ 0.548768 15 0 tcp 1040 ------- 1 15.0 34.0 1 42
- 0.548768 15 0 tcp 1040 ------- 1 15.0 34.0 1 42
+ 0.548768 15 0 tcp 1040 ------- 1 15.0 34.0 2 43
r 0.548869 1 0 ack 40 ------- 5 33.0 17.1 0 31
+ 0.548869 0 17 ack 40 ------- 5 33.0 17.1 0 31
- 0.548869 0 17 ack 40 ------- 5 33.0 17.1 0 31
r 0.548981 0 14 ack 40 ------- 2 23.0 14.0 0 22
+ 0.548981 14 0 tcp 1040 ------- 2 14.0 23.0 1 44
- 0.548981 14 0 tcp 1040 ------- 2 14.0 23.0 1 44
+ 0.548981 14 0 tcp 1040 ------- 2 14.0 23.0 2 45
r 0.549083 1 0 ack 40 ------- 18 28.1 14.1 0 32
+ 0.549083 0 14 ack 40 ------- 18 28.1 14.1 0 32
- 0.549083 0 14 ack 40 ------- 18 28.1 14.1 0 32
r 0.549195 0 11 ack 40 ------- 3 30.0 11.0 0 23
+ 0.549195 11 0 tcp 1040 ------- 3 11.0 30.0 1 46
- 0.549195 11 0 tcp 1040 ------- 3 11.0 30.0 1 46
+ 0.549195 11 0 tcp 1040 ------- 3 11.0 30.0 2 47
r 0.549296 1 0 ack 40 ------- 7 39.0 11.1 0 33
+ 0.549296 0 11 ack 40 ------- 7 39.0 11.1 0 33
- 0.549296 0 11 ack 40 ------- 7 39.0 11.1 0 33
- 0.549387 17 0 tcp 1040 ------- 0 17.0 32.0 2 41
r 0.549408 0 13 ack 40 ------- 4 34.1 13.0 0 24
+ 0.549408 13 0 tcp 1040 ------- 4 13.0 34.1 1 48
- 0.549408 13 0 tcp 1040 ------- 4 13.0 34.1 1 48
+ 0.549408 13 0 tcp 1040 ------- 4 13.0 34.1 2 49
r 0.549509 1 0 ack 40 ------- 11 34.3 8.1 0 34
+ 0.549509 0 8 ack 40 ------- 11 34.3 8.1 0 34
- 0.549509 0 8 ack 40 ------- 11 34.3 8.1 0 34
- 0.5496 15 0 tcp 1040 ------- 1 15.0 34.0 2 43
r 0.549621 0 8 ack 40 ------- 6 32.1 8.0 0 25
+ 0.549621 8 0 tcp 1040 ------- 6 8.0 32.1 1 50
- 0.549621 8 0 tcp 1040 ------- 6 8.0 32.1 1 50
+ 0.549621 8 0 tcp 1040 ------- 6 8.0 32.1 2 51
r 0.549723 1 0 ack 40 ------- 17 28.0 20.1 0 35
+ 0.549723 0 20 ack 40 ------- 17 28.0 20.1 0 35
- 0.549723 0 20 ack 40 ------- 17 28.0 20.1 0 35
- 0.549813 14 0 tcp 1040 ------- 2 14.0 23.0 2 45
r 0.549835 0 2 ack 40 ------- 10 29.0 2.0 0 26
+ 0.549835 2 0 tcp 1040 ------- 10 2.0 29.0 1 52
- 0.549835 2 0 tcp 1040 ------- 10 2.0 29.0 1 52
+ 0.549835 2 0 tcp 1040 ------- 10 2.0 29.0 2 53
r 0.549936 1 0 ack 40 ------- 13 37.0 17.2 0 36
+ 0.549936 0 17 ack 40 ------- 13 37.0 17.2 0 36
- 0.549936 0 17 ack 40 ------- 13 37.0 17.2 0 36
- 0.550027 11 0 tcp 1040 ------- 3 11.0 30.0 2 47
r 0.550048 0 7 ack 40 ------- 12 24.0 7.0 0 27
+ 0.550048 7 0 tcp 1040 ------- 12 7.0 24.0 1 54
- 0.550048 7 0 tcp 1040 ------- 12 7.0 24.0 1 54
+ 0.550048 7 0 tcp 1040 ------- 12 7.0 24.0 2 55
r 0.550149 1 0 ack 40 ------- 8 34.2 11.2 0 37
+ 0.550149 0 11 ack 40 ------- 8 34.2 11.2 0 37
- 0.550149 0 11 ack 40 ------- 8 34.2 11.2 0 37
- 0.55024 13 0 tcp 1040 ------- 4 13.0 34.1 2 49
r 0.550261 0 20 ack 40 ------- 14 39.2 20.0 0 28
+ 0.550261 20 0 tcp 1040 ------- 14 20.0 39.2 1 56
- 0.550261 20 0 tcp 1040 ------- 14 20.0 39.2 1 56
+ 0.550261 20 0 tcp 1040 ------- 14 20.0 39.2 2 57
r 0.550363 1 0 ack 40 ------- 9 39.1 11.3 0 38
+ 0.550363 0 11 ack 40 ------- 9 39.1 11.3 0 38
- 0.550363 0 11 ack 40 ------- 9 39.1 11.3 0 38
- 0.550453 8 0 tcp 1040 ------- 6 8.0 32.1 2 51
r 0.550475 0 3 ack 40 ------- 15 32.2 3.0 0 29
+ 0.550475 3 0 tcp 1040 ------- 15 3.0 32.2 1 58
- 0.550475 3 0 tcp 1040 ------- 15 3.0 32.2 1 58
+ 0.550475 3 0 tcp 1040 ------- 15 3.0 32.2 2 59
r 0.550576 1 0 ack 40 ------- 19 31.0 11.4 0 39
+ 0.550576 0 11 ack 40 ------- 19 31.0 11.4 0 39
- 0.550576 0 11 ack 40 ------- 19 31.0 11.4 0 39
- 0.550667 2 0 tcp 1040 ------- 10 2.0 29.0 2 53
r 0.550688 0 5 ack 40 ------- 16 27.0 5.0 0 30
+ 0.550688 5 0 tcp 1040 ------- 16 5.0 27.0 1 60
- 0.550688 5 0 tcp 1040 ------- 16 5.0 27.0 1 60
+ 0.550688 5 0 tcp 1040 ------- 16 5.0 27.0 2 61
- 0.55088 7 0 tcp 1040 ------- 12 7.0 24.0 2 55
r 0.550901 0 17 ack 40 ------- 5 33.0 17.1 0 31
+ 0.550901 17 0 tcp 1040 ------- 5 17.1 33.0 1 62
- 0.550901 17 0 tcp 1040 ------- 5 17.1 33.0 1 62
+ 0.550901 17 0 tcp 1040 ------- 5 17.1 33.0 2 63
- 0.551093 20 0 tcp 1040 ------- 14 20.0 39.2 2 57
r 0.551115 0 14 ack 40 ------- 18 28.1 14.1 0 32
+ 0.551115 14 0 tcp 1040 ------- 18 14.1 28.1 1 64
- 0.551115 14 0 tcp 1040 ------- 18 14.1 28.1 1 64
+ 0.551115 14 0 tcp 1040 ------- 18 14.1 28.1 2 65
- 0.551307 3 0 tcp 1040 ------- 15 3.0 32.2 2 59
r 0.551328 0 11 ack 40 ------- 7 39.0 11.1 0 33
+ 0.551328 11 0 tcp 1040 ------- 7 11.1 39.0 1 66
- 0.551328 11 0 tcp 1040 ------- 7 11.1 39.0 1 66
+ 0.551328 11 0 tcp 1040 ------- 7 11.1 39.0 2 67
r 0.551387 17 0 tcp 1040 ------- 0 17.0 32.0 1 40
+ 0.551387 0 1 tcp 1040 ------- 0 17.0 32.0 1 40
- 0.551387 0 1 tcp 1040 ------- 0 17.0 32.0 1 40
- 0.55152 5 0 tcp 1040 ------- 16 5.0 27.0 2 61
r 0.551541 0 8 ack 40 ------- 11 34.3 8.1 0 34
+ 0.551541 8 0 tcp 1040 ------- 11 8.1 34.3 1 68
- 0.551541 8 0 tcp 1040 ------- 11 8.1 34.3 1 68
+ 0.551541 8 0 tcp 1040 ------- 11 8.1 34.3 2 69
r 0.5516 15 0 tcp 1040 ------- 1 15.0 34.0 1 42
+ 0.5516 0 1 tcp 1040 ------- 1 15.0 34.0 1 42
- 0.551733 17 0 tcp 1040 ------- 5 17.1 33.0 2 63
r 0.551755 0 20 ack 40 ------- 17 28.0 20.1 0 35
+ 0.551755 20 0 tcp 1040 ------- 17 20.1 28.0 1 70
+ 0.551755 20 0 tcp 1040 ------- 17 20.1 28.0 2 71
r 0.551813 14 0 tcp 1040 ------- 2 14.0 23.0 1 44
+ 0.551813 0 1 tcp 1040 ------- 2 14.0 23.0 1 44
- 0.551925 20 0 tcp 1040 ------- 17 20.1 28.0 1 70
- 0.551947 14 0 tcp 1040 ------- 18 14.1 28.1 2 65
r 0.551968 0 17 ack 40 ------- 13 37.0 17.2 0 36
+ 0.551968 17 0 tcp 1040 ------- 13 17.2 37.0 1 72
+ 0.551968 17 0 tcp 1040 ------- 13 17.2 37.0 2 73
r 0.552027 11 0 tcp 1040 ------- 3 11.0 30.0 1 46
+ 0.552027 0 1 tcp 1040 ------- 3 11.0 30.0 1 46
- 0.55216 11 0 tcp 1040 ------- 7 11.1 39.0 2 67
r 0.552181 0 11 ack 40 ------- 8 34.2 11.2 0 37
+ 0.552181 11 0 tcp 1040 ------- 8 11.2 34.2 1 74
+ 0.552181 11 0 tcp 1040 ------- 8 11.2 34.2 2 75
r 0.552219 17 0 tcp 1040 ------- 0 17.0 32.0 2 41
+ 0.552219 0 1 tcp 1040 ------- 0 17.0 32.0 2 41
r 0.55224 13 0 tcp 1040 ------- 4 13.0 34.1 1 48
+ 0.55224 0 1 tcp 1040 ------- 4 13.0 34.1 1 48
- 0.552373 8 0 tcp 1040 ------- 11 8.1 34.3 2 69
r 0.552395 0 11 ack 40 ------- 9 39.1 11.3 0 38
+ 0.552395 11 0 tcp 1040 ------- 9 11.3 39.1 1 76
+ 0.552395 11 0 tcp 1040 ------- 9 11.3 39.1 2 77
r 0.552432 15 0 tcp 1040 ------- 1 15.0 34.0 2 43
+ 0.552432 0 1 tcp 1040 ------- 1 15.0 34.0 2 43
r 0.552453 8 0 tcp 1040 ------- 6 8.0 32.1 1 50
+ 0.552453 0 1 tcp 1040 ------- 6 8.0 32.1 1 50
- 0.552565 17 0 tcp 1040 ------- 13 17.2 37.0 1 72
r 0.552608 0 11 ack 40 ------- 19 31.0 11.4 0 39
+ 0.552608 11 0 tcp 1040 ------- 19 11.4 31.0 1 78
+ 0.552608 11 0 tcp 1040 ------- 19 11.4 31.0 2 79
r 0.552645 14 0 tcp 1040 ------- 2 14.0 23.0 2 45
+ 0.552645 0 1 tcp 1040 ------- 2 14.0 23.0 2 45
r 0.552667 2 0 tcp 1040 ------- 10 2.0 29.0 1 52
+ 0.552667 0 1 tcp 1040 ------- 10 2.0 29.0 1 52
- 0.552757 20 0 tcp 1040 ------- 17 20.1 28.0 2 71
r 0.552859 11 0 tcp 1040 ------- 3 11.0 30.0 2 47
+ 0.552859 0 1 tcp 1040 ------- 3 11.0 30.0 2 47
r 0.55288 7 0 tcp 1040 ------- 12 7.0 24.0 1 54
+ 0.55288 0 1 tcp 1040 ------- 12 7.0 24.0 1 54
- 0.552992 11 0 tcp 1040 ------- 8 11.2 34.2 1 74
r 0.553072 13 0 tcp 1040 ------- 4 13.0 34.1 2 49
+ 0.553072 0 1 tcp 1040 ------- 4 13.0 34.1 2 49
r 0.553093 20 0 tcp 1040 ------- 14 20.0 39.2 1 56
+ 0.553093 0 1 tcp 1040 ------- 14 20.0 39.2 1 56
r 0.553285 8 0 tcp 1040 ------- 6 8.0 32.1 2 51
+ 0.553285 0 1 tcp 1040 ------- 6 8.0 32.1 2 51
r 0.553307 3 0 tcp 1040 ------- 15 3.0 32.2 1 58
+ 0.553307 0 1 tcp 1040 ------- 15 3.0 32.2 1 58
- 0.553397 17 0 tcp 1040 ------- 13 17.2 37.0 2 73
r 0.553499 2 0 tcp 1040 ------- 10 2.0 29.0 2 53
+ 0.553499 0 1 tcp 1040 ------- 10 2.0 29.0 2 53
r 0.55352 5 0 tcp 1040 ------- 16 5.0 27.0 1 60
+ 0.55352 0 1 tcp 1040 ------- 16 5.0 27.0 1 60
r 0.553712 7 0 tcp 1040 ------- 12 7.0 24.0 2 55
+ 0.553712 0 1 tcp 1040 ------- 12 7.0 24.0 2 55
r 0.553733 17 0 tcp 1040 ------- 5 17.1 33.0 1 62
+ 0.553733 0 1 tcp 1040 ------- 5 17.1 33.0 1 62
- 0.553824 11 0 tcp 1040 ------- 8 11.2 34.2 2 75
r 0.553925 20 0 tcp 1040 ------- 14 20.0 39.2 2 57
+ 0.553925 0 1 tcp 1040 ------- 14 20.0 39.2 2 57
r 0.553947 14 0 tcp 1040 ------- 18 14.1 28.1 1 64
+ 0.553947 0 1 tcp 1040 ------- 18 14.1 28.1 1 64
r 0.554139 3 0 tcp 1040 ------- 15 3.0 32.2 2 59
+ 0.554139 0 1 tcp 1040 ------- 15 3.0 32.2 2 59
r 0.55416 11 0 tcp 1040 ------- 7 11.1 39.0 1 66
+ 0.55416 0 1 tcp 1040 ------- 7 11.1 39.0 1 66
r 0.554352 5 0 tcp 1040 ------- 16 5.0 27.0 2 61
+ 0.554352 0 1 tcp 1040 ------- 16 5.0 27.0 2 61
r 0.554373 8 0 tcp 1040 ------- 11 8.1 34.3 1 68
+ 0.554373 0 1 tcp 1040 ------- 11 8.1 34.3 1 68
r 0.554565 17 0 tcp 1040 ------- 5 17.1 33.0 2 63
+ 0.554565 0 1 tcp 1040 ------- 5 17.1 33.0 2 63
- 0.554656 11 0 tcp 1040 ------- 9 11.3 39.1 1 76
r 0.554757 20 0 tcp 1040 ------- 17 20.1 28.0 1 70
+ 0.554757 0 1 tcp 1040 ------- 17 20.1 28.0 1 70
r 0.554779 14 0 tcp 1040 ------- 18 14.1 28.1 2 65
+ 0.554779 0 1 tcp 1040 ------- 18 14.1 28.1 2 65
r 0.554992 11 0 tcp 1040 ------- 7 11.1 39.0 2 67
+ 0.554992 0 1 tcp 1040 ------- 7 11.1 39.0 2 67
r 0.555205 8 0 tcp 1040 ------- 11 8.1 34.3 2 69
+ 0.555205 0 1 tcp 1040 ------- 11 8.1 34.3 2 69
r 0.555397 17 0 tcp 1040 ------- 13 17.2 37.0 1 72
+ 0.555397 0 1 tcp 1040 ------- 13 17.2 37.0 1 72
d 0.555397 0 1 tcp 1040 ------- 13 17.2 37.0 1 72
- 0.555488 11 0 tcp 1040 ------- 9 11.3 39.1 2 77
r 0.555589 20 0 tcp 1040 ------- 17 20.1 28.0 2 71
+ 0.555589 0 1 tcp 1040 ------- 17 20.1 28.0 2 71
d 0.555589 0 1 tcp 1040 ------- 17 20.1 28.0 2 71
r 0.555824 11 0 tcp 1040 ------- 8 11.2 34.2 1 74
+ 0.555824 0 1 tcp 1040 ------- 8 11.2 34.2 1 74
d 0.555824 0 1 tcp 1040 ------- 8 11.2 34.2 1 74
r 0.556229 17 0 tcp 1040 ------- 13 17.2 37.0 2 73
+ 0.556229 0 1 tcp 1040 ------- 13 17.2 37.0 2 73
d 0.556229 0 1 tcp 1040 ------- 13 17.2 37.0 2 73
- 0.55632 11 0 tcp 1040 ------- 19 11.4 31.0 1 78
r 0.556656 11 0 tcp 1040 ------- 8 11.2 34.2 2 75
+ 0.556656 0 1 tcp 1040 ------- 8 11.2 34.2 2 75
d 0.556656 0 1 tcp 1040 ------- 8 11.2 34.2 2 75
- 0.556933 0 1 tcp 1040 ------- 1 15.0 34.0 1 42
- 0.557152 11 0 tcp 1040 ------- 19 11.4 31.0 2 79
r 0.557488 11 0 tcp 1040 ------- 9 11.3 39.1 1 76
+ 0.557488 0 1 tcp 1040 ------- 9 11.3 39.1 1 76
r 0.55832 11 0 tcp 1040 ------- 9 11.3 39.1 2 77
+ 0.55832 0 1 tcp 1040 ------- 9 11.3 39.1 2 77
d 0.55832 0 1 tcp 1040 ------- 9 11.3 39.1 2 77
r 0.559152 11 0 tcp 1040 ------- 19 11.4 31.0 1 78
+ 0.559152 0 1 tcp 1040 ------- 19 11.4 31.0 1 78
d 0.559152 0 1 tcp 1040 ------- 19 11.4 31.0 1 78
r 0.559984 11 0 tcp 1040 ------- 19 11.4 31.0 2 79
+ 0.559984 0 1 tcp 1040 ------- 19 11.4 31.0 2 79
d 0.559984 0 1 tcp 1040 ------- 19 11.4 31.0 2 79
- 0.56248 0 1 tcp 1040 ------- 2 14.0 23.0 1 44
- 0.568027 0 1 tcp 1040 ------- 3 11.0 30.0 1 46
- 0.573573 0 1 tcp 1040 ------- 0 17.0 32.0 2 41
r 0.576933 0 1 tcp 1040 ------- 0 17.0 32.0 1 40
+ 0.576933 1 32 tcp 1040 ------- 0 17.0 32.0 1 40
- 0.576933 1 32 tcp 1040 ------- 0 17.0 32.0 1 40
- 0.57912 0 1 tcp 1040 ------- 4 13.0 34.1 1 48
r 0.579765 1 32 tcp 1040 ------- 0 17.0 32.0 1 40
+ 0.579765 32 1 ack 40 ------- 0 32.0 17.0 1 80
- 0.579765 32 1 ack 40 ------- 0 32.0 17.0 1 80
r 0.581797 32 1 ack 40 ------- 0 32.0 17.0 1 80
+ 0.581797 1 0 ack 40 ------- 0 32.0 17.0 1 80
- 0.581797 1 0 ack 40 ------- 0 32.0 17.0 1 80
r 0.58248 0 1 tcp 1040 ------- 1 15.0 34.0 1 42
+ 0.58248 1 34 tcp 1040 ------- 1 15.0 34.0 1 42
- 0.58248 1 34 tcp 1040 ------- 1 15.0 34.0 1 42
- 0.584667 0 1 tcp 1040 ------- 1 15.0 34.0 2 43
r 0.585312 1 34 tcp 1040 ------- 1 15.0 34.0 1 42
+ 0.585312 34 1 ack 40 ------- 1 34.0 15.0 1 81
- 0.585312 34 1 ack 40 ------- 1 34.0 15.0 1 81
r 0.587344 34 1 ack 40 ------- 1 34.0 15.0 1 81
+ 0.587344 1 0 ack 40 ------- 1 34.0 15.0 1 81
- 0.587344 1 0 ack 40 ------- 1 34.0 15.0 1 81
r 0.588027 0 1 tcp 1040 ------- 2 14.0 23.0 1 44
+ 0.588027 1 23 tcp 1040 ------- 2 14.0 23.0 1 44
- 0.588027 1 23 tcp 1040 ------- 2 14.0 23.0 1 44
- 0.590213 0 1 tcp 1040 ------- 6 8.0 32.1 1 50
r 0.590859 1 23 tcp 1040 ------- 2 14.0 23.0 1 44
+ 0.590859 23 1 ack 40 ------- 2 23.0 14.0 1 82
- 0.590859 23 1 ack 40 ------- 2 23.0 14.0 1 82
r 0.592891 23 1 ack 40 ------- 2 23.0 14.0 1 82
+ 0.592891 1 0 ack 40 ------- 2 23.0 14.0 1 82
- 0.592891 1 0 ack 40 ------- 2 23.0 14.0 1 82
r 0.593573 0 1 tcp 1040 ------- 3 11.0 30.0 1 46
+ 0.593573 1 30 tcp 1040 ------- 3 11.0 30.0 1 46
- 0.593573 1 30 tcp 1040 ------- 3 11.0 30.0 1 46
- 0.59576 0 1 tcp 1040 ------- 2 14.0 23.0 2 45
r 0.596405 1 30 tcp 1040 ------- 3 11.0 30.0 1 46
+ 0.596405 30 1 ack 40 ------- 3 30.0 11.0 1 83
- 0.596405 30 1 ack 40 ------- 3 30.0 11.0 1 83
r 0.598437 30 1 ack 40 ------- 3 30.0 11.0 1 83
+ 0.598437 1 0 ack 40 ------- 3 30.0 11.0 1 83
- 0.598437 1 0 ack 40 ------- 3 30.0 11.0 1 83
r 0.59912 0 1 tcp 1040 ------- 0 17.0 32.0 2 41
+ 0.59912 1 32 tcp 1040 ------- 0 17.0 32.0 2 41
- 0.59912 1 32 tcp 1040 ------- 0 17.0 32.0 2 41
- 0.601307 0 1 tcp 1040 ------- 10 2.0 29.0 1 52
r 0.601952 1 32 tcp 1040 ------- 0 17.0 32.0 2 41
+ 0.601952 32 1 ack 40 ------- 0 32.0 17.0 2 84
- 0.601952 32 1 ack 40 ------- 0 32.0 17.0 2 84
r 0.602011 1 0 ack 40 ------- 0 32.0 17.0 1 80
+ 0.602011 0 17 ack 40 ------- 0 32.0 17.0 1 80
- 0.602011 0 17 ack 40 ------- 0 32.0 17.0 1 80
r 0.603984 32 1 ack 40 ------- 0 32.0 17.0 2 84
+ 0.603984 1 0 ack 40 ------- 0 32.0 17.0 2 84
- 0.603984 1 0 ack 40 ------- 0 32.0 17.0 2 84
r 0.604043 0 17 ack 40 ------- 0 32.0 17.0 1 80
+ 0.604043 17 0 tcp 1040 ------- 0 17.0 32.0 3 85
- 0.604043 17 0 tcp 1040 ------- 0 17.0 32.0 3 85
+ 0.604043 17 0 tcp 1040 ------- 0 17.0 32.0 4 86
r 0.604667 0 1 tcp 1040 ------- 4 13.0 34.1 1 48
+ 0.604667 1 34 tcp 1040 ------- 4 13.0 34.1 1 48
- 0.604667 1 34 tcp 1040 ------- 4 13.0 34.1 1 48
- 0.604875 17 0 tcp 1040 ------- 0 17.0 32.0 4 86
- 0.606853 0 1 tcp 1040 ------- 3 11.0 30.0 2 47
r 0.606875 17 0 tcp 1040 ------- 0 17.0 32.0 3 85
+ 0.606875 0 1 tcp 1040 ------- 0 17.0 32.0 3 85
r 0.607499 1 34 tcp 1040 ------- 4 13.0 34.1 1 48
+ 0.607499 34 1 ack 40 ------- 4 34.1 13.0 1 87
- 0.607499 34 1 ack 40 ------- 4 34.1 13.0 1 87
r 0.607557 1 0 ack 40 ------- 1 34.0 15.0 1 81
+ 0.607557 0 15 ack 40 ------- 1 34.0 15.0 1 81
- 0.607557 0 15 ack 40 ------- 1 34.0 15.0 1 81
r 0.607707 17 0 tcp 1040 ------- 0 17.0 32.0 4 86
+ 0.607707 0 1 tcp 1040 ------- 0 17.0 32.0 4 86
r 0.609531 34 1 ack 40 ------- 4 34.1 13.0 1 87
+ 0.609531 1 0 ack 40 ------- 4 34.1 13.0 1 87
- 0.609531 1 0 ack 40 ------- 4 34.1 13.0 1 87
r 0.609589 0 15 ack 40 ------- 1 34.0 15.0 1 81
+ 0.609589 15 0 tcp 1040 ------- 1 15.0 34.0 3 88
- 0.609589 15 0 tcp 1040 ------- 1 15.0 34.0 3 88
+ 0.609589 15 0 tcp 1040 ------- 1 15.0 34.0 4 89
r 0.610213 0 1 tcp 1040 ------- 1 15.0 34.0 2 43
+ 0.610213 1 34 tcp 1040 ------- 1 15.0 34.0 2 43
- 0.610213 1 34 tcp 1040 ------- 1 15.0 34.0 2 43
- 0.610421 15 0 tcp 1040 ------- 1 15.0 34.0 4 89
- 0.6124 0 1 tcp 1040 ------- 12 7.0 24.0 1 54
r 0.612421 15 0 tcp 1040 ------- 1 15.0 34.0 3 88
+ 0.612421 0 1 tcp 1040 ------- 1 15.0 34.0 3 88
r 0.613045 1 34 tcp 1040 ------- 1 15.0 34.0 2 43
+ 0.613045 34 1 ack 40 ------- 1 34.0 15.0 2 90
- 0.613045 34 1 ack 40 ------- 1 34.0 15.0 2 90
r 0.613104 1 0 ack 40 ------- 2 23.0 14.0 1 82
+ 0.613104 0 14 ack 40 ------- 2 23.0 14.0 1 82
- 0.613104 0 14 ack 40 ------- 2 23.0 14.0 1 82